LAMMPS (18 Jun 2019)
### ---preamble--- ###
log /home/aortiza/Data/DecimatedSquare/test12/decimationchi_0.350000_e_1.log
