LAMMPS (18 Jun 2019)
### ---preamble--- ###
log ../Data/Run1-PlainRun/Tilt_0_deg_h3899_2023_07_14_10_49_58.log
