units micro
atom_style hybrid sphere paramagnet bond
boundary p p f

neighbor 4.0 nsq
pair_style hybrid biharmonic 10.0 lj/cut/dipole/cut 1 20
bond_style biharmonic

### ---Create Particles and Region--- ###
read_data bidisperse/test_traps_pair.lmpdata
  orthogonal box = (-10 -10 -2.05) to (10 10 2.05)
  1 by 1 by 1 MPI processor grid
  reading atoms ...
  6 atoms
  scanning bonds ...
  1 = max bonds/atom
  reading bonds ...
  2 bonds
  1 = max # of 1-2 neighbors
  0 = max # of 1-3 neighbors
  0 = max # of 1-4 neighbors
  1 = max # of special neighbors
  special bonds CPU = 3.31402e-05 secs
  read_data CPU = 0.000285864 secs
group Atoms type 1
3 atoms in group Atoms
group Traps type 2
2 atoms in group Traps

group Traps type 3
3 atoms in group Traps
mass * 1

### ---Variables--- ###

## magnetic field
variable Bmag atom 0.0
variable freq atom 9.999999999999999e-05
variable theta atom 1.5707963267948966
variable phi atom 0.0

variable fieldx atom v_Bmag*cos(v_freq*time*2*PI+v_phi)*sin(v_theta)
variable fieldy atom v_Bmag*sin(v_freq*time*2*PI+v_phi)*sin(v_theta)
variable fieldz atom v_Bmag*cos(v_theta)

### ---Fixes--- ###

fix 	1 Atoms setdipole v_fieldx v_fieldy v_fieldz 0
fix 	2 Atoms bd 300 0.001 749894

fix     3 Atoms addforce 0 0 -0.0
fix 	6 Atoms wall/lj126 zlo EDGE 0.01 1.7817974362806785  2 zhi EDGE 0.01 1.7817974362806785  2

### ---Run Commands--- ###
timestep 	100.0
dump 	3 all custom 333 bidisperse/test_traps_pair.lammpstrj id type x	 y	 z	 mux	 muy	 muz
thermo_style 	custom step atoms
thermo 	100
run 	600000
Neighbor list info ...
  update every 1 steps, delay 10 steps, check yes
  max neighbors/atom: 2000, page size: 100000
  master list distance cutoff = 24
  ghost atom cutoff = 24
  4 neighbor lists, perpetual/occasional/extra = 4 0 0
  (1) pair biharmonic, perpetual, skip from (4)
      attributes: half, newton on
      pair build: skip
      stencil: none
      bin: none
  (2) pair lj/cut/dipole/cut, perpetual, skip from (4)
      attributes: half, newton on
      pair build: skip
      stencil: none
      bin: none
  (3) fix setdipole, perpetual
      attributes: full, newton on
      pair build: full/nsq
      stencil: none
      bin: none
  (4) neighbor class addition, perpetual, half/full from (3)
      attributes: half, newton on
      pair build: halffull/newton
      stencil: none
      bin: none
Per MPI rank memory allocation (min/avg/max) = 8.209 | 8.209 | 8.209 Mbytes
Step Atoms 
       0        6 
     100        6 
     200        6 
     300        6 
     400        6 
     500        6 
     600        6 
     700        6 
     800        6 
     900        6 
    1000        6 
    1100        6 
    1200        6 
    1300        6 
    1400        6 
    1500        6 
    1600        6 
    1700        6 
    1800        6 
    1900        6 
    2000        6 
    2100        6 
    2200        6 
    2300        6 
    2400        6 
    2500        6 
    2600        6 
    2700        6 
    2800        6 
    2900        6 
    3000        6 
    3100        6 
    3200        6 
    3300        6 
    3400        6 
    3500        6 
    3600        6 
    3700        6 
    3800        6 
    3900        6 
    4000        6 
    4100        6 
    4200        6 
    4300        6 
    4400        6 
    4500        6 
    4600        6 
    4700        6 
    4800        6 
    4900        6 
    5000        6 
    5100        6 
    5200        6 
    5300        6 
    5400        6 
    5500        6 
    5600        6 
    5700        6 
    5800        6 
    5900        6 
    6000        6 
    6100        6 
    6200        6 
    6300        6 
    6400        6 
    6500        6 
    6600        6 
    6700        6 
    6800        6 
    6900        6 
    7000        6 
    7100        6 
    7200        6 
    7300        6 
    7400        6 
    7500        6 
    7600        6 
    7700        6 
    7800        6 
    7900        6 
    8000        6 
    8100        6 
    8200        6 
    8300        6 
    8400        6 
    8500        6 
    8600        6 
    8700        6 
    8800        6 
    8900        6 
    9000        6 
    9100        6 
    9200        6 
    9300        6 
    9400        6 
    9500        6 
    9600        6 
    9700        6 
    9800        6 
    9900        6 
   10000        6 
   10100        6 
   10200        6 
   10300        6 
   10400        6 
   10500        6 
   10600        6 
   10700        6 
   10800        6 
   10900        6 
   11000        6 
   11100        6 
   11200        6 
   11300        6 
   11400        6 
   11500        6 
   11600        6 
   11700        6 
   11800        6 
   11900        6 
   12000        6 
   12100        6 
   12200        6 
   12300        6 
   12400        6 
   12500        6 
   12600        6 
   12700        6 
   12800        6 
   12900        6 
   13000        6 
   13100        6 
   13200        6 
   13300        6 
   13400        6 
   13500        6 
   13600        6 
   13700        6 
   13800        6 
   13900        6 
   14000        6 
   14100        6 
   14200        6 
   14300        6 
   14400        6 
   14500        6 
   14600        6 
   14700        6 
   14800        6 
   14900        6 
   15000        6 
   15100        6 
   15200        6 
   15300        6 
   15400        6 
   15500        6 
   15600        6 
   15700        6 
   15800        6 
   15900        6 
   16000        6 
   16100        6 
   16200        6 
   16300        6 
   16400        6 
   16500        6 
   16600        6 
   16700        6 
   16800        6 
   16900        6 
   17000        6 
   17100        6 
   17200        6 
   17300        6 
   17400        6 
   17500        6 
   17600        6 
   17700        6 
   17800        6 
   17900        6 
   18000        6 
   18100        6 
   18200        6 
   18300        6 
   18400        6 
   18500        6 
   18600        6 
   18700        6 
   18800        6 
   18900        6 
   19000        6 
   19100        6 
   19200        6 
   19300        6 
   19400        6 
   19500        6 
   19600        6 
   19700        6 
   19800        6 
   19900        6 
   20000        6 
   20100        6 
   20200        6 
   20300        6 
   20400        6 
   20500        6 
   20600        6 
   20700        6 
   20800        6 
   20900        6 
   21000        6 
   21100        6 
   21200        6 
   21300        6 
   21400        6 
   21500        6 
   21600        6 
   21700        6 
   21800        6 
   21900        6 
   22000        6 
   22100        6 
   22200        6 
   22300        6 
   22400        6 
   22500        6 
   22600        6 
   22700        6 
   22800        6 
   22900        6 
   23000        6 
   23100        6 
   23200        6 
   23300        6 
   23400        6 
   23500        6 
   23600        6 
   23700        6 
   23800        6 
   23900        6 
   24000        6 
   24100        6 
   24200        6 
   24300        6 
   24400        6 
   24500        6 
   24600        6 
   24700        6 
   24800        6 
   24900        6 
   25000        6 
   25100        6 
   25200        6 
   25300        6 
   25400        6 
   25500        6 
   25600        6 
   25700        6 
   25800        6 
   25900        6 
   26000        6 
   26100        6 
   26200        6 
   26300        6 
   26400        6 
   26500        6 
   26600        6 
   26700        6 
   26800        6 
   26900        6 
   27000        6 
   27100        6 
   27200        6 
   27300        6 
   27400        6 
   27500        6 
   27600        6 
   27700        6 
   27800        6 
   27900        6 
   28000        6 
   28100        6 
   28200        6 
   28300        6 
   28400        6 
   28500        6 
   28600        6 
   28700        6 
   28800        6 
   28900        6 
   29000        6 
   29100        6 
   29200        6 
   29300        6 
   29400        6 
   29500        6 
   29600        6 
   29700        6 
   29800        6 
   29900        6 
   30000        6 
   30100        6 
   30200        6 
   30300        6 
   30400        6 
   30500        6 
   30600        6 
   30700        6 
   30800        6 
   30900        6 
   31000        6 
   31100        6 
   31200        6 
   31300        6 
   31400        6 
   31500        6 
   31600        6 
   31700        6 
   31800        6 
   31900        6 
   32000        6 
   32100        6 
   32200        6 
   32300        6 
   32400        6 
   32500        6 
   32600        6 
   32700        6 
   32800        6 
   32900        6 
   33000        6 
   33100        6 
   33200        6 
   33300        6 
   33400        6 
   33500        6 
   33600        6 
   33700        6 
   33800        6 
   33900        6 
   34000        6 
   34100        6 
   34200        6 
   34300        6 
   34400        6 
   34500        6 
   34600        6 
   34700        6 
   34800        6 
   34900        6 
   35000        6 
   35100        6 
   35200        6 
   35300        6 
   35400        6 
   35500        6 
   35600        6 
   35700        6 
   35800        6 
   35900        6 
   36000        6 
   36100        6 
   36200        6 
   36300        6 
   36400        6 
   36500        6 
   36600        6 
   36700        6 
   36800        6 
   36900        6 
   37000        6 
   37100        6 
   37200        6 
   37300        6 
   37400        6 
   37500        6 
   37600        6 
   37700        6 
   37800        6 
   37900        6 
   38000        6 
   38100        6 
   38200        6 
   38300        6 
   38400        6 
   38500        6 
   38600        6 
   38700        6 
   38800        6 
   38900        6 
   39000        6 
   39100        6 
   39200        6 
   39300        6 
   39400        6 
   39500        6 
   39600        6 
   39700        6 
   39800        6 
   39900        6 
   40000        6 
   40100        6 
   40200        6 
   40300        6 
   40400        6 
   40500        6 
   40600        6 
   40700        6 
   40800        6 
   40900        6 
   41000        6 
   41100        6 
   41200        6 
   41300        6 
   41400        6 
   41500        6 
   41600        6 
   41700        6 
   41800        6 
   41900        6 
   42000        6 
   42100        6 
   42200        6 
   42300        6 
   42400        6 
   42500        6 
   42600        6 
   42700        6 
   42800        6 
   42900        6 
   43000        6 
   43100        6 
   43200        6 
   43300        6 
   43400        6 
   43500        6 
   43600        6 
   43700        6 
   43800        6 
   43900        6 
   44000        6 
   44100        6 
   44200        6 
   44300        6 
   44400        6 
   44500        6 
   44600        6 
   44700        6 
   44800        6 
   44900        6 
   45000        6 
   45100        6 
   45200        6 
   45300        6 
   45400        6 
   45500        6 
   45600        6 
   45700        6 
   45800        6 
   45900        6 
   46000        6 
   46100        6 
   46200        6 
   46300        6 
   46400        6 
   46500        6 
   46600        6 
   46700        6 
   46800        6 
   46900        6 
   47000        6 
   47100        6 
   47200        6 
   47300        6 
   47400        6 
   47500        6 
   47600        6 
   47700        6 
   47800        6 
   47900        6 
   48000        6 
   48100        6 
   48200        6 
   48300        6 
   48400        6 
   48500        6 
   48600        6 
   48700        6 
   48800        6 
   48900        6 
   49000        6 
   49100        6 
   49200        6 
   49300        6 
   49400        6 
   49500        6 
   49600        6 
   49700        6 
   49800        6 
   49900        6 
   50000        6 
   50100        6 
   50200        6 
   50300        6 
   50400        6 
   50500        6 
   50600        6 
   50700        6 
   50800        6 
   50900        6 
   51000        6 
   51100        6 
   51200        6 
   51300        6 
   51400        6 
   51500        6 
   51600        6 
   51700        6 
   51800        6 
   51900        6 
   52000        6 
   52100        6 
   52200        6 
   52300        6 
   52400        6 
   52500        6 
   52600        6 
   52700        6 
   52800        6 
   52900        6 
   53000        6 
   53100        6 
   53200        6 
   53300        6 
   53400        6 
   53500        6 
   53600        6 
   53700        6 
   53800        6 
   53900        6 
   54000        6 
   54100        6 
   54200        6 
   54300        6 
   54400        6 
   54500        6 
   54600        6 
   54700        6 
   54800        6 
   54900        6 
   55000        6 
   55100        6 
   55200        6 
   55300        6 
   55400        6 
   55500        6 
   55600        6 
   55700        6 
   55800        6 
   55900        6 
   56000        6 
   56100        6 
   56200        6 
   56300        6 
   56400        6 
   56500        6 
   56600        6 
   56700        6 
   56800        6 
   56900        6 
   57000        6 
   57100        6 
   57200        6 
   57300        6 
   57400        6 
   57500        6 
   57600        6 
   57700        6 
   57800        6 
   57900        6 
   58000        6 
   58100        6 
   58200        6 
   58300        6 
   58400        6 
   58500        6 
   58600        6 
   58700        6 
   58800        6 
   58900        6 
   59000        6 
   59100        6 
   59200        6 
   59300        6 
   59400        6 
   59500        6 
   59600        6 
   59700        6 
   59800        6 
   59900        6 
   60000        6 
   60100        6 
   60200        6 
   60300        6 
   60400        6 
   60500        6 
   60600        6 
   60700        6 
   60800        6 
   60900        6 
   61000        6 
   61100        6 
   61200        6 
   61300        6 
   61400        6 
   61500        6 
   61600        6 
   61700        6 
   61800        6 
   61900        6 
   62000        6 
   62100        6 
   62200        6 
   62300        6 
   62400        6 
   62500        6 
   62600        6 
   62700        6 
   62800        6 
   62900        6 
   63000        6 
   63100        6 
   63200        6 
   63300        6 
   63400        6 
   63500        6 
   63600        6 
   63700        6 
   63800        6 
   63900        6 
   64000        6 
   64100        6 
   64200        6 
   64300        6 
   64400        6 
   64500        6 
   64600        6 
   64700        6 
   64800        6 
   64900        6 
   65000        6 
   65100        6 
   65200        6 
   65300        6 
   65400        6 
   65500        6 
   65600        6 
   65700        6 
   65800        6 
   65900        6 
   66000        6 
   66100        6 
   66200        6 
   66300        6 
   66400        6 
   66500        6 
   66600        6 
   66700        6 
   66800        6 
   66900        6 
   67000        6 
   67100        6 
   67200        6 
   67300        6 
   67400        6 
   67500        6 
   67600        6 
   67700        6 
   67800        6 
   67900        6 
   68000        6 
   68100        6 
   68200        6 
   68300        6 
   68400        6 
   68500        6 
   68600        6 
   68700        6 
   68800        6 
   68900        6 
   69000        6 
   69100        6 
   69200        6 
   69300        6 
   69400        6 
   69500        6 
   69600        6 
   69700        6 
   69800        6 
   69900        6 
   70000        6 
   70100        6 
   70200        6 
   70300        6 
   70400        6 
   70500        6 
   70600        6 
   70700        6 
   70800        6 
   70900        6 
   71000        6 
   71100        6 
   71200        6 
   71300        6 
   71400        6 
   71500        6 
   71600        6 
   71700        6 
   71800        6 
   71900        6 
   72000        6 
   72100        6 
   72200        6 
   72300        6 
   72400        6 
   72500        6 
   72600        6 
   72700        6 
   72800        6 
   72900        6 
   73000        6 
   73100        6 
   73200        6 
   73300        6 
   73400        6 
   73500        6 
   73600        6 
   73700        6 
   73800        6 
   73900        6 
   74000        6 
   74100        6 
   74200        6 
   74300        6 
   74400        6 
   74500        6 
   74600        6 
   74700        6 
   74800        6 
   74900        6 
   75000        6 
   75100        6 
   75200        6 
   75300        6 
   75400        6 
   75500        6 
   75600        6 
   75700        6 
   75800        6 
   75900        6 
   76000        6 
   76100        6 
   76200        6 
   76300        6 
   76400        6 
   76500        6 
   76600        6 
   76700        6 
   76800        6 
   76900        6 
   77000        6 
   77100        6 
   77200        6 
   77300        6 
   77400        6 
   77500        6 
   77600        6 
   77700        6 
   77800        6 
   77900        6 
   78000        6 
   78100        6 
   78200        6 
   78300        6 
   78400        6 
   78500        6 
   78600        6 
   78700        6 
   78800        6 
   78900        6 
   79000        6 
   79100        6 
   79200        6 
   79300        6 
   79400        6 
   79500        6 
   79600        6 
   79700        6 
   79800        6 
   79900        6 
   80000        6 
   80100        6 
   80200        6 
   80300        6 
   80400        6 
   80500        6 
   80600        6 
   80700        6 
   80800        6 
   80900        6 
   81000        6 
   81100        6 
   81200        6 
   81300        6 
   81400        6 
   81500        6 
   81600        6 
   81700        6 
   81800        6 
   81900        6 
   82000        6 
   82100        6 
   82200        6 
   82300        6 
   82400        6 
   82500        6 
   82600        6 
   82700        6 
   82800        6 
   82900        6 
   83000        6 
   83100        6 
   83200        6 
   83300        6 
   83400        6 
   83500        6 
   83600        6 
   83700        6 
   83800        6 
   83900        6 
   84000        6 
   84100        6 
   84200        6 
   84300        6 
   84400        6 
   84500        6 
   84600        6 
   84700        6 
   84800        6 
   84900        6 
   85000        6 
   85100        6 
   85200        6 
   85300        6 
   85400        6 
   85500        6 
   85600        6 
   85700        6 
   85800        6 
   85900        6 
   86000        6 
   86100        6 
   86200        6 
   86300        6 
   86400        6 
   86500        6 
   86600        6 
   86700        6 
   86800        6 
   86900        6 
   87000        6 
   87100        6 
   87200        6 
   87300        6 
   87400        6 
   87500        6 
   87600        6 
   87700        6 
   87800        6 
   87900        6 
   88000        6 
   88100        6 
   88200        6 
   88300        6 
   88400        6 
   88500        6 
   88600        6 
   88700        6 
   88800        6 
   88900        6 
   89000        6 
   89100        6 
   89200        6 
   89300        6 
   89400        6 
   89500        6 
   89600        6 
   89700        6 
   89800        6 
   89900        6 
   90000        6 
   90100        6 
   90200        6 
   90300        6 
   90400        6 
   90500        6 
   90600        6 
   90700        6 
   90800        6 
   90900        6 
   91000        6 
   91100        6 
   91200        6 
   91300        6 
   91400        6 
   91500        6 
   91600        6 
   91700        6 
   91800        6 
   91900        6 
   92000        6 
   92100        6 
   92200        6 
   92300        6 
   92400        6 
   92500        6 
   92600        6 
   92700        6 
   92800        6 
   92900        6 
   93000        6 
   93100        6 
   93200        6 
   93300        6 
   93400        6 
   93500        6 
   93600        6 
   93700        6 
   93800        6 
   93900        6 
   94000        6 
   94100        6 
   94200        6 
   94300        6 
   94400        6 
   94500        6 
   94600        6 
   94700        6 
   94800        6 
   94900        6 
   95000        6 
   95100        6 
   95200        6 
   95300        6 
   95400        6 
   95500        6 
   95600        6 
   95700        6 
   95800        6 
   95900        6 
   96000        6 
   96100        6 
   96200        6 
   96300        6 
   96400        6 
   96500        6 
   96600        6 
   96700        6 
   96800        6 
   96900        6 
   97000        6 
   97100        6 
   97200        6 
   97300        6 
   97400        6 
   97500        6 
   97600        6 
   97700        6 
   97800        6 
   97900        6 
   98000        6 
   98100        6 
   98200        6 
   98300        6 
   98400        6 
   98500        6 
   98600        6 
   98700        6 
   98800        6 
   98900        6 
   99000        6 
   99100        6 
   99200        6 
   99300        6 
   99400        6 
   99500        6 
   99600        6 
   99700        6 
   99800        6 
   99900        6 
  100000        6 
  100100        6 
  100200        6 
  100300        6 
  100400        6 
  100500        6 
  100600        6 
  100700        6 
  100800        6 
  100900        6 
  101000        6 
  101100        6 
  101200        6 
  101300        6 
  101400        6 
  101500        6 
  101600        6 
  101700        6 
  101800        6 
  101900        6 
  102000        6 
  102100        6 
  102200        6 
  102300        6 
  102400        6 
  102500        6 
  102600        6 
  102700        6 
  102800        6 
  102900        6 
  103000        6 
  103100        6 
  103200        6 
  103300        6 
  103400        6 
  103500        6 
  103600        6 
  103700        6 
  103800        6 
  103900        6 
  104000        6 
  104100        6 
  104200        6 
  104300        6 
  104400        6 
  104500        6 
  104600        6 
  104700        6 
  104800        6 
  104900        6 
  105000        6 
  105100        6 
  105200        6 
  105300        6 
  105400        6 
  105500        6 
  105600        6 
  105700        6 
  105800        6 
  105900        6 
  106000        6 
  106100        6 
  106200        6 
  106300        6 
  106400        6 
  106500        6 
  106600        6 
  106700        6 
  106800        6 
  106900        6 
  107000        6 
  107100        6 
  107200        6 
  107300        6 
  107400        6 
  107500        6 
  107600        6 
  107700        6 
  107800        6 
  107900        6 
  108000        6 
  108100        6 
  108200        6 
  108300        6 
  108400        6 
  108500        6 
  108600        6 
  108700        6 
  108800        6 
  108900        6 
  109000        6 
  109100        6 
  109200        6 
  109300        6 
  109400        6 
  109500        6 
  109600        6 
  109700        6 
  109800        6 
  109900        6 
  110000        6 
  110100        6 
  110200        6 
  110300        6 
  110400        6 
  110500        6 
  110600        6 
  110700        6 
  110800        6 
  110900        6 
  111000        6 
  111100        6 
  111200        6 
  111300        6 
  111400        6 
  111500        6 
  111600        6 
  111700        6 
  111800        6 
  111900        6 
  112000        6 
  112100        6 
  112200        6 
  112300        6 
  112400        6 
  112500        6 
  112600        6 
  112700        6 
  112800        6 
  112900        6 
  113000        6 
  113100        6 
  113200        6 
  113300        6 
  113400        6 
  113500        6 
  113600        6 
  113700        6 
  113800        6 
  113900        6 
  114000        6 
  114100        6 
  114200        6 
  114300        6 
  114400        6 
  114500        6 
  114600        6 
  114700        6 
  114800        6 
  114900        6 
  115000        6 
  115100        6 
  115200        6 
  115300        6 
  115400        6 
  115500        6 
  115600        6 
  115700        6 
  115800        6 
  115900        6 
  116000        6 
  116100        6 
  116200        6 
  116300        6 
  116400        6 
  116500        6 
  116600        6 
  116700        6 
  116800        6 
  116900        6 
  117000        6 
  117100        6 
  117200        6 
  117300        6 
  117400        6 
  117500        6 
  117600        6 
  117700        6 
  117800        6 
  117900        6 
  118000        6 
  118100        6 
  118200        6 
  118300        6 
  118400        6 
  118500        6 
  118600        6 
  118700        6 
  118800        6 
  118900        6 
  119000        6 
  119100        6 
  119200        6 
  119300        6 
  119400        6 
  119500        6 
  119600        6 
  119700        6 
  119800        6 
  119900        6 
  120000        6 
  120100        6 
  120200        6 
  120300        6 
  120400        6 
  120500        6 
  120600        6 
  120700        6 
  120800        6 
  120900        6 
  121000        6 
  121100        6 
  121200        6 
  121300        6 
  121400        6 
  121500        6 
  121600        6 
  121700        6 
  121800        6 
  121900        6 
  122000        6 
  122100        6 
  122200        6 
  122300        6 
  122400        6 
  122500        6 
  122600        6 
  122700        6 
  122800        6 
  122900        6 
  123000        6 
  123100        6 
  123200        6 
  123300        6 
  123400        6 
  123500        6 
  123600        6 
  123700        6 
  123800        6 
  123900        6 
  124000        6 
  124100        6 
  124200        6 
  124300        6 
  124400        6 
  124500        6 
  124600        6 
  124700        6 
  124800        6 
  124900        6 
  125000        6 
  125100        6 
  125200        6 
  125300        6 
  125400        6 
  125500        6 
  125600        6 
  125700        6 
  125800        6 
  125900        6 
  126000        6 
  126100        6 
  126200        6 
  126300        6 
  126400        6 
  126500        6 
  126600        6 
  126700        6 
  126800        6 
  126900        6 
  127000        6 
  127100        6 
  127200        6 
  127300        6 
  127400        6 
  127500        6 
  127600        6 
  127700        6 
  127800        6 
  127900        6 
  128000        6 
  128100        6 
  128200        6 
  128300        6 
  128400        6 
  128500        6 
  128600        6 
  128700        6 
  128800        6 
  128900        6 
  129000        6 
  129100        6 
  129200        6 
  129300        6 
  129400        6 
  129500        6 
  129600        6 
  129700        6 
  129800        6 
  129900        6 
  130000        6 
  130100        6 
  130200        6 
  130300        6 
  130400        6 
  130500        6 
  130600        6 
  130700        6 
  130800        6 
  130900        6 
  131000        6 
  131100        6 
  131200        6 
  131300        6 
  131400        6 
  131500        6 
  131600        6 
  131700        6 
  131800        6 
  131900        6 
  132000        6 
  132100        6 
  132200        6 
  132300        6 
  132400        6 
  132500        6 
  132600        6 
  132700        6 
  132800        6 
  132900        6 
  133000        6 
  133100        6 
  133200        6 
  133300        6 
  133400        6 
  133500        6 
  133600        6 
  133700        6 
  133800        6 
  133900        6 
  134000        6 
  134100        6 
  134200        6 
  134300        6 
  134400        6 
  134500        6 
  134600        6 
  134700        6 
  134800        6 
  134900        6 
  135000        6 
  135100        6 
  135200        6 
  135300        6 
  135400        6 
  135500        6 
  135600        6 
  135700        6 
  135800        6 
  135900        6 
  136000        6 
  136100        6 
  136200        6 
  136300        6 
  136400        6 
  136500        6 
  136600        6 
  136700        6 
  136800        6 
  136900        6 
  137000        6 
  137100        6 
  137200        6 
  137300        6 
  137400        6 
  137500        6 
  137600        6 
  137700        6 
  137800        6 
  137900        6 
  138000        6 
  138100        6 
  138200        6 
  138300        6 
  138400        6 
  138500        6 
  138600        6 
  138700        6 
  138800        6 
  138900        6 
  139000        6 
  139100        6 
  139200        6 
  139300        6 
  139400        6 
  139500        6 
  139600        6 
  139700        6 
  139800        6 
  139900        6 
  140000        6 
  140100        6 
  140200        6 
  140300        6 
  140400        6 
  140500        6 
  140600        6 
  140700        6 
  140800        6 
  140900        6 
  141000        6 
  141100        6 
  141200        6 
  141300        6 
  141400        6 
  141500        6 
  141600        6 
  141700        6 
  141800        6 
  141900        6 
  142000        6 
  142100        6 
  142200        6 
  142300        6 
  142400        6 
  142500        6 
  142600        6 
  142700        6 
  142800        6 
  142900        6 
  143000        6 
  143100        6 
  143200        6 
  143300        6 
  143400        6 
  143500        6 
  143600        6 
  143700        6 
  143800        6 
  143900        6 
  144000        6 
  144100        6 
  144200        6 
  144300        6 
  144400        6 
  144500        6 
  144600        6 
  144700        6 
  144800        6 
  144900        6 
  145000        6 
  145100        6 
  145200        6 
  145300        6 
  145400        6 
  145500        6 
  145600        6 
  145700        6 
  145800        6 
  145900        6 
  146000        6 
  146100        6 
  146200        6 
  146300        6 
  146400        6 
  146500        6 
  146600        6 
  146700        6 
  146800        6 
  146900        6 
  147000        6 
  147100        6 
  147200        6 
  147300        6 
  147400        6 
  147500        6 
  147600        6 
  147700        6 
  147800        6 
  147900        6 
  148000        6 
  148100        6 
  148200        6 
  148300        6 
  148400        6 
  148500        6 
  148600        6 
  148700        6 
  148800        6 
  148900        6 
  149000        6 
  149100        6 
  149200        6 
  149300        6 
  149400        6 
  149500        6 
  149600        6 
  149700        6 
  149800        6 
  149900        6 
  150000        6 
  150100        6 
  150200        6 
  150300        6 
  150400        6 
  150500        6 
  150600        6 
  150700        6 
  150800        6 
  150900        6 
  151000        6 
  151100        6 
  151200        6 
  151300        6 
  151400        6 
  151500        6 
  151600        6 
  151700        6 
  151800        6 
  151900        6 
  152000        6 
  152100        6 
  152200        6 
  152300        6 
  152400        6 
  152500        6 
  152600        6 
  152700        6 
  152800        6 
  152900        6 
  153000        6 
  153100        6 
  153200        6 
  153300        6 
  153400        6 
  153500        6 
  153600        6 
  153700        6 
  153800        6 
  153900        6 
  154000        6 
  154100        6 
  154200        6 
  154300        6 
  154400        6 
  154500        6 
  154600        6 
  154700        6 
  154800        6 
  154900        6 
  155000        6 
  155100        6 
  155200        6 
  155300        6 
  155400        6 
  155500        6 
  155600        6 
  155700        6 
  155800        6 
  155900        6 
  156000        6 
  156100        6 
  156200        6 
  156300        6 
  156400        6 
  156500        6 
  156600        6 
  156700        6 
  156800        6 
  156900        6 
  157000        6 
  157100        6 
  157200        6 
  157300        6 
  157400        6 
  157500        6 
  157600        6 
  157700        6 
  157800        6 
  157900        6 
  158000        6 
  158100        6 
  158200        6 
  158300        6 
  158400        6 
  158500        6 
  158600        6 
  158700        6 
  158800        6 
  158900        6 
  159000        6 
  159100        6 
  159200        6 
  159300        6 
  159400        6 
  159500        6 
  159600        6 
  159700        6 
  159800        6 
  159900        6 
  160000        6 
  160100        6 
  160200        6 
  160300        6 
  160400        6 
  160500        6 
  160600        6 
  160700        6 
  160800        6 
  160900        6 
  161000        6 
  161100        6 
  161200        6 
  161300        6 
  161400        6 
  161500        6 
  161600        6 
  161700        6 
  161800        6 
  161900        6 
  162000        6 
  162100        6 
  162200        6 
  162300        6 
  162400        6 
  162500        6 
  162600        6 
  162700        6 
  162800        6 
  162900        6 
  163000        6 
  163100        6 
  163200        6 
  163300        6 
  163400        6 
  163500        6 
  163600        6 
  163700        6 
  163800        6 
  163900        6 
  164000        6 
  164100        6 
  164200        6 
  164300        6 
  164400        6 
  164500        6 
  164600        6 
  164700        6 
  164800        6 
  164900        6 
  165000        6 
  165100        6 
  165200        6 
  165300        6 
  165400        6 
  165500        6 
  165600        6 
  165700        6 
  165800        6 
  165900        6 
  166000        6 
  166100        6 
  166200        6 
  166300        6 
  166400        6 
  166500        6 
  166600        6 
  166700        6 
  166800        6 
  166900        6 
  167000        6 
  167100        6 
  167200        6 
  167300        6 
  167400        6 
  167500        6 
  167600        6 
  167700        6 
  167800        6 
  167900        6 
  168000        6 
  168100        6 
  168200        6 
  168300        6 
  168400        6 
  168500        6 
  168600        6 
  168700        6 
  168800        6 
  168900        6 
  169000        6 
  169100        6 
  169200        6 
  169300        6 
  169400        6 
  169500        6 
  169600        6 
  169700        6 
  169800        6 
  169900        6 
  170000        6 
  170100        6 
  170200        6 
  170300        6 
  170400        6 
  170500        6 
  170600        6 
  170700        6 
  170800        6 
  170900        6 
  171000        6 
  171100        6 
  171200        6 
  171300        6 
  171400        6 
  171500        6 
  171600        6 
  171700        6 
  171800        6 
  171900        6 
  172000        6 
  172100        6 
  172200        6 
  172300        6 
  172400        6 
  172500        6 
  172600        6 
  172700        6 
  172800        6 
  172900        6 
  173000        6 
  173100        6 
  173200        6 
  173300        6 
  173400        6 
  173500        6 
  173600        6 
  173700        6 
  173800        6 
  173900        6 
  174000        6 
  174100        6 
  174200        6 
  174300        6 
  174400        6 
  174500        6 
  174600        6 
  174700        6 
  174800        6 
  174900        6 
  175000        6 
  175100        6 
  175200        6 
  175300        6 
  175400        6 
  175500        6 
  175600        6 
  175700        6 
  175800        6 
  175900        6 
  176000        6 
  176100        6 
  176200        6 
  176300        6 
  176400        6 
  176500        6 
  176600        6 
  176700        6 
  176800        6 
  176900        6 
  177000        6 
  177100        6 
  177200        6 
  177300        6 
  177400        6 
  177500        6 
  177600        6 
  177700        6 
  177800        6 
  177900        6 
  178000        6 
  178100        6 
  178200        6 
  178300        6 
  178400        6 
  178500        6 
  178600        6 
  178700        6 
  178800        6 
  178900        6 
  179000        6 
  179100        6 
  179200        6 
  179300        6 
  179400        6 
  179500        6 
  179600        6 
  179700        6 
  179800        6 
  179900        6 
  180000        6 
  180100        6 
  180200        6 
  180300        6 
  180400        6 
  180500        6 
  180600        6 
  180700        6 
  180800        6 
  180900        6 
  181000        6 
  181100        6 
  181200        6 
  181300        6 
  181400        6 
  181500        6 
  181600        6 
  181700        6 
  181800        6 
  181900        6 
  182000        6 
  182100        6 
  182200        6 
  182300        6 
  182400        6 
  182500        6 
  182600        6 
  182700        6 
  182800        6 
  182900        6 
  183000        6 
  183100        6 
  183200        6 
  183300        6 
  183400        6 
  183500        6 
  183600        6 
  183700        6 
  183800        6 
  183900        6 
  184000        6 
  184100        6 
  184200        6 
  184300        6 
  184400        6 
  184500        6 
  184600        6 
  184700        6 
  184800        6 
  184900        6 
  185000        6 
  185100        6 
  185200        6 
  185300        6 
  185400        6 
  185500        6 
  185600        6 
  185700        6 
  185800        6 
  185900        6 
  186000        6 
  186100        6 
  186200        6 
  186300        6 
  186400        6 
  186500        6 
  186600        6 
  186700        6 
  186800        6 
  186900        6 
  187000        6 
  187100        6 
  187200        6 
  187300        6 
  187400        6 
  187500        6 
  187600        6 
  187700        6 
  187800        6 
  187900        6 
  188000        6 
  188100        6 
  188200        6 
  188300        6 
  188400        6 
  188500        6 
  188600        6 
  188700        6 
  188800        6 
  188900        6 
  189000        6 
  189100        6 
  189200        6 
  189300        6 
  189400        6 
  189500        6 
  189600        6 
  189700        6 
  189800        6 
  189900        6 
  190000        6 
  190100        6 
  190200        6 
  190300        6 
  190400        6 
  190500        6 
  190600        6 
  190700        6 
  190800        6 
  190900        6 
  191000        6 
  191100        6 
  191200        6 
  191300        6 
  191400        6 
  191500        6 
  191600        6 
  191700        6 
  191800        6 
  191900        6 
  192000        6 
  192100        6 
  192200        6 
  192300        6 
  192400        6 
  192500        6 
  192600        6 
  192700        6 
  192800        6 
  192900        6 
  193000        6 
  193100        6 
  193200        6 
  193300        6 
  193400        6 
  193500        6 
  193600        6 
  193700        6 
  193800        6 
  193900        6 
  194000        6 
  194100        6 
  194200        6 
  194300        6 
  194400        6 
  194500        6 
  194600        6 
  194700        6 
  194800        6 
  194900        6 
  195000        6 
  195100        6 
  195200        6 
  195300        6 
  195400        6 
  195500        6 
  195600        6 
  195700        6 
  195800        6 
  195900        6 
  196000        6 
  196100        6 
  196200        6 
  196300        6 
  196400        6 
  196500        6 
  196600        6 
  196700        6 
  196800        6 
  196900        6 
  197000        6 
  197100        6 
  197200        6 
  197300        6 
  197400        6 
  197500        6 
  197600        6 
  197700        6 
  197800        6 
  197900        6 
  198000        6 
  198100        6 
  198200        6 
  198300        6 
  198400        6 
  198500        6 
  198600        6 
  198700        6 
  198800        6 
  198900        6 
  199000        6 
  199100        6 
  199200        6 
  199300        6 
  199400        6 
  199500        6 
  199600        6 
  199700        6 
  199800        6 
  199900        6 
  200000        6 
  200100        6 
  200200        6 
  200300        6 
  200400        6 
  200500        6 
  200600        6 
  200700        6 
  200800        6 
  200900        6 
  201000        6 
  201100        6 
  201200        6 
  201300        6 
  201400        6 
  201500        6 
  201600        6 
  201700        6 
  201800        6 
  201900        6 
  202000        6 
  202100        6 
  202200        6 
  202300        6 
  202400        6 
  202500        6 
  202600        6 
  202700        6 
  202800        6 
  202900        6 
  203000        6 
  203100        6 
  203200        6 
  203300        6 
  203400        6 
  203500        6 
  203600        6 
  203700        6 
  203800        6 
  203900        6 
  204000        6 
  204100        6 
  204200        6 
  204300        6 
  204400        6 
  204500        6 
  204600        6 
  204700        6 
  204800        6 
  204900        6 
  205000        6 
  205100        6 
  205200        6 
  205300        6 
  205400        6 
  205500        6 
  205600        6 
  205700        6 
  205800        6 
  205900        6 
  206000        6 
  206100        6 
  206200        6 
  206300        6 
  206400        6 
  206500        6 
  206600        6 
  206700        6 
  206800        6 
  206900        6 
  207000        6 
  207100        6 
  207200        6 
  207300        6 
  207400        6 
  207500        6 
  207600        6 
  207700        6 
  207800        6 
  207900        6 
  208000        6 
  208100        6 
  208200        6 
  208300        6 
  208400        6 
  208500        6 
  208600        6 
  208700        6 
  208800        6 
  208900        6 
  209000        6 
  209100        6 
  209200        6 
  209300        6 
  209400        6 
  209500        6 
  209600        6 
  209700        6 
  209800        6 
  209900        6 
  210000        6 
  210100        6 
  210200        6 
  210300        6 
  210400        6 
  210500        6 
  210600        6 
  210700        6 
  210800        6 
  210900        6 
  211000        6 
  211100        6 
  211200        6 
  211300        6 
  211400        6 
  211500        6 
  211600        6 
  211700        6 
  211800        6 
  211900        6 
  212000        6 
  212100        6 
  212200        6 
  212300        6 
  212400        6 
  212500        6 
  212600        6 
  212700        6 
  212800        6 
  212900        6 
  213000        6 
  213100        6 
  213200        6 
  213300        6 
  213400        6 
  213500        6 
  213600        6 
  213700        6 
  213800        6 
  213900        6 
  214000        6 
  214100        6 
  214200        6 
  214300        6 
  214400        6 
  214500        6 
  214600        6 
  214700        6 
  214800        6 
  214900        6 
  215000        6 
  215100        6 
  215200        6 
  215300        6 
  215400        6 
  215500        6 
  215600        6 
  215700        6 
  215800        6 
  215900        6 
  216000        6 
  216100        6 
  216200        6 
  216300        6 
  216400        6 
  216500        6 
  216600        6 
  216700        6 
  216800        6 
  216900        6 
  217000        6 
  217100        6 
  217200        6 
  217300        6 
  217400        6 
  217500        6 
  217600        6 
  217700        6 
  217800        6 
  217900        6 
  218000        6 
  218100        6 
  218200        6 
  218300        6 
  218400        6 
  218500        6 
  218600        6 
  218700        6 
  218800        6 
  218900        6 
  219000        6 
  219100        6 
  219200        6 
  219300        6 
  219400        6 
  219500        6 
  219600        6 
  219700        6 
  219800        6 
  219900        6 
  220000        6 
  220100        6 
  220200        6 
  220300        6 
  220400        6 
  220500        6 
  220600        6 
  220700        6 
  220800        6 
  220900        6 
  221000        6 
  221100        6 
  221200        6 
  221300        6 
  221400        6 
  221500        6 
  221600        6 
  221700        6 
  221800        6 
  221900        6 
  222000        6 
  222100        6 
  222200        6 
  222300        6 
  222400        6 
  222500        6 
  222600        6 
  222700        6 
  222800        6 
  222900        6 
  223000        6 
  223100        6 
  223200        6 
  223300        6 
  223400        6 
  223500        6 
  223600        6 
  223700        6 
  223800        6 
  223900        6 
  224000        6 
  224100        6 
  224200        6 
  224300        6 
  224400        6 
  224500        6 
  224600        6 
  224700        6 
  224800        6 
  224900        6 
  225000        6 
  225100        6 
  225200        6 
  225300        6 
  225400        6 
  225500        6 
  225600        6 
  225700        6 
  225800        6 
  225900        6 
  226000        6 
  226100        6 
  226200        6 
  226300        6 
  226400        6 
  226500        6 
  226600        6 
  226700        6 
  226800        6 
  226900        6 
  227000        6 
  227100        6 
  227200        6 
  227300        6 
  227400        6 
  227500        6 
  227600        6 
  227700        6 
  227800        6 
  227900        6 
  228000        6 
  228100        6 
  228200        6 
  228300        6 
  228400        6 
  228500        6 
  228600        6 
  228700        6 
  228800        6 
  228900        6 
  229000        6 
  229100        6 
  229200        6 
  229300        6 
  229400        6 
  229500        6 
  229600        6 
  229700        6 
  229800        6 
  229900        6 
  230000        6 
  230100        6 
  230200        6 
  230300        6 
  230400        6 
  230500        6 
  230600        6 
  230700        6 
  230800        6 
  230900        6 
  231000        6 
  231100        6 
  231200        6 
  231300        6 
  231400        6 
  231500        6 
  231600        6 
  231700        6 
  231800        6 
  231900        6 
  232000        6 
  232100        6 
  232200        6 
  232300        6 
  232400        6 
  232500        6 
  232600        6 
  232700        6 
  232800        6 
  232900        6 
  233000        6 
  233100        6 
  233200        6 
  233300        6 
  233400        6 
  233500        6 
  233600        6 
  233700        6 
  233800        6 
  233900        6 
  234000        6 
  234100        6 
  234200        6 
  234300        6 
  234400        6 
  234500        6 
  234600        6 
  234700        6 
  234800        6 
  234900        6 
  235000        6 
  235100        6 
  235200        6 
  235300        6 
  235400        6 
  235500        6 
  235600        6 
  235700        6 
  235800        6 
  235900        6 
  236000        6 
  236100        6 
  236200        6 
  236300        6 
  236400        6 
  236500        6 
  236600        6 
  236700        6 
  236800        6 
  236900        6 
  237000        6 
  237100        6 
  237200        6 
  237300        6 
  237400        6 
  237500        6 
  237600        6 
  237700        6 
  237800        6 
  237900        6 
  238000        6 
  238100        6 
  238200        6 
  238300        6 
  238400        6 
  238500        6 
  238600        6 
  238700        6 
  238800        6 
  238900        6 
  239000        6 
  239100        6 
  239200        6 
  239300        6 
  239400        6 
  239500        6 
  239600        6 
  239700        6 
  239800        6 
  239900        6 
  240000        6 
  240100        6 
  240200        6 
  240300        6 
  240400        6 
  240500        6 
  240600        6 
  240700        6 
  240800        6 
  240900        6 
  241000        6 
  241100        6 
  241200        6 
  241300        6 
  241400        6 
  241500        6 
  241600        6 
  241700        6 
  241800        6 
  241900        6 
  242000        6 
  242100        6 
  242200        6 
  242300        6 
  242400        6 
  242500        6 
  242600        6 
  242700        6 
  242800        6 
  242900        6 
  243000        6 
  243100        6 
  243200        6 
  243300        6 
  243400        6 
  243500        6 
  243600        6 
  243700        6 
  243800        6 
  243900        6 
  244000        6 
  244100        6 
  244200        6 
  244300        6 
  244400        6 
  244500        6 
  244600        6 
  244700        6 
  244800        6 
  244900        6 
  245000        6 
  245100        6 
  245200        6 
  245300        6 
  245400        6 
  245500        6 
  245600        6 
  245700        6 
  245800        6 
  245900        6 
  246000        6 
  246100        6 
  246200        6 
  246300        6 
  246400        6 
  246500        6 
  246600        6 
  246700        6 
  246800        6 
  246900        6 
  247000        6 
  247100        6 
  247200        6 
  247300        6 
  247400        6 
  247500        6 
  247600        6 
  247700        6 
  247800        6 
  247900        6 
  248000        6 
  248100        6 
  248200        6 
  248300        6 
  248400        6 
  248500        6 
  248600        6 
  248700        6 
  248800        6 
  248900        6 
  249000        6 
  249100        6 
  249200        6 
  249300        6 
  249400        6 
  249500        6 
  249600        6 
  249700        6 
  249800        6 
  249900        6 
  250000        6 
  250100        6 
  250200        6 
  250300        6 
  250400        6 
  250500        6 
  250600        6 
  250700        6 
  250800        6 
  250900        6 
  251000        6 
  251100        6 
  251200        6 
  251300        6 
  251400        6 
  251500        6 
  251600        6 
  251700        6 
  251800        6 
  251900        6 
  252000        6 
  252100        6 
  252200        6 
  252300        6 
  252400        6 
  252500        6 
  252600        6 
  252700        6 
  252800        6 
  252900        6 
  253000        6 
  253100        6 
  253200        6 
  253300        6 
  253400        6 
  253500        6 
  253600        6 
  253700        6 
  253800        6 
  253900        6 
  254000        6 
  254100        6 
  254200        6 
  254300        6 
  254400        6 
  254500        6 
  254600        6 
  254700        6 
  254800        6 
  254900        6 
  255000        6 
  255100        6 
  255200        6 
  255300        6 
  255400        6 
  255500        6 
  255600        6 
  255700        6 
  255800        6 
  255900        6 
  256000        6 
  256100        6 
  256200        6 
  256300        6 
  256400        6 
  256500        6 
  256600        6 
  256700        6 
  256800        6 
  256900        6 
  257000        6 
  257100        6 
  257200        6 
  257300        6 
  257400        6 
  257500        6 
  257600        6 
  257700        6 
  257800        6 
  257900        6 
  258000        6 
  258100        6 
  258200        6 
  258300        6 
  258400        6 
  258500        6 
  258600        6 
  258700        6 
  258800        6 
  258900        6 
  259000        6 
  259100        6 
  259200        6 
  259300        6 
  259400        6 
  259500        6 
  259600        6 
  259700        6 
  259800        6 
  259900        6 
  260000        6 
  260100        6 
  260200        6 
  260300        6 
  260400        6 
  260500        6 
  260600        6 
  260700        6 
  260800        6 
  260900        6 
  261000        6 
  261100        6 
  261200        6 
  261300        6 
  261400        6 
  261500        6 
  261600        6 
  261700        6 
  261800        6 
  261900        6 
  262000        6 
  262100        6 
  262200        6 
  262300        6 
  262400        6 
  262500        6 
  262600        6 
  262700        6 
  262800        6 
  262900        6 
  263000        6 
  263100        6 
  263200        6 
  263300        6 
  263400        6 
  263500        6 
  263600        6 
  263700        6 
  263800        6 
  263900        6 
  264000        6 
  264100        6 
  264200        6 
  264300        6 
  264400        6 
  264500        6 
  264600        6 
  264700        6 
  264800        6 
  264900        6 
  265000        6 
  265100        6 
  265200        6 
  265300        6 
  265400        6 
  265500        6 
  265600        6 
  265700        6 
  265800        6 
  265900        6 
  266000        6 
  266100        6 
  266200        6 
  266300        6 
  266400        6 
  266500        6 
  266600        6 
  266700        6 
  266800        6 
  266900        6 
  267000        6 
  267100        6 
  267200        6 
  267300        6 
  267400        6 
  267500        6 
  267600        6 
  267700        6 
  267800        6 
  267900        6 
  268000        6 
  268100        6 
  268200        6 
  268300        6 
  268400        6 
  268500        6 
  268600        6 
  268700        6 
  268800        6 
  268900        6 
  269000        6 
  269100        6 
  269200        6 
  269300        6 
  269400        6 
  269500        6 
  269600        6 
  269700        6 
  269800        6 
  269900        6 
  270000        6 
  270100        6 
  270200        6 
  270300        6 
  270400        6 
  270500        6 
  270600        6 
  270700        6 
  270800        6 
  270900        6 
  271000        6 
  271100        6 
  271200        6 
  271300        6 
  271400        6 
  271500        6 
  271600        6 
  271700        6 
  271800        6 
  271900        6 
  272000        6 
  272100        6 
  272200        6 
  272300        6 
  272400        6 
  272500        6 
  272600        6 
  272700        6 
  272800        6 
  272900        6 
  273000        6 
  273100        6 
  273200        6 
  273300        6 
  273400        6 
  273500        6 
  273600        6 
  273700        6 
  273800        6 
  273900        6 
  274000        6 
  274100        6 
  274200        6 
  274300        6 
  274400        6 
  274500        6 
  274600        6 
  274700        6 
  274800        6 
  274900        6 
  275000        6 
  275100        6 
  275200        6 
  275300        6 
  275400        6 
  275500        6 
  275600        6 
  275700        6 
  275800        6 
  275900        6 
  276000        6 
  276100        6 
  276200        6 
  276300        6 
  276400        6 
  276500        6 
  276600        6 
  276700        6 
  276800        6 
  276900        6 
  277000        6 
  277100        6 
  277200        6 
  277300        6 
  277400        6 
  277500        6 
  277600        6 
  277700        6 
  277800        6 
  277900        6 
  278000        6 
  278100        6 
  278200        6 
  278300        6 
  278400        6 
  278500        6 
  278600        6 
  278700        6 
  278800        6 
  278900        6 
  279000        6 
  279100        6 
  279200        6 
  279300        6 
  279400        6 
  279500        6 
  279600        6 
  279700        6 
  279800        6 
  279900        6 
  280000        6 
  280100        6 
  280200        6 
  280300        6 
  280400        6 
  280500        6 
  280600        6 
  280700        6 
  280800        6 
  280900        6 
  281000        6 
  281100        6 
  281200        6 
  281300        6 
  281400        6 
  281500        6 
  281600        6 
  281700        6 
  281800        6 
  281900        6 
  282000        6 
  282100        6 
  282200        6 
  282300        6 
  282400        6 
  282500        6 
  282600        6 
  282700        6 
  282800        6 
  282900        6 
  283000        6 
  283100        6 
  283200        6 
  283300        6 
  283400        6 
  283500        6 
  283600        6 
  283700        6 
  283800        6 
  283900        6 
  284000        6 
  284100        6 
  284200        6 
  284300        6 
  284400        6 
  284500        6 
  284600        6 
  284700        6 
  284800        6 
  284900        6 
  285000        6 
  285100        6 
  285200        6 
  285300        6 
  285400        6 
  285500        6 
  285600        6 
  285700        6 
  285800        6 
  285900        6 
  286000        6 
  286100        6 
  286200        6 
  286300        6 
  286400        6 
  286500        6 
  286600        6 
  286700        6 
  286800        6 
  286900        6 
  287000        6 
  287100        6 
  287200        6 
  287300        6 
  287400        6 
  287500        6 
  287600        6 
  287700        6 
  287800        6 
  287900        6 
  288000        6 
  288100        6 
  288200        6 
  288300        6 
  288400        6 
  288500        6 
  288600        6 
  288700        6 
  288800        6 
  288900        6 
  289000        6 
  289100        6 
  289200        6 
  289300        6 
  289400        6 
  289500        6 
  289600        6 
  289700        6 
  289800        6 
  289900        6 
  290000        6 
  290100        6 
  290200        6 
  290300        6 
  290400        6 
  290500        6 
  290600        6 
  290700        6 
  290800        6 
  290900        6 
  291000        6 
  291100        6 
  291200        6 
  291300        6 
  291400        6 
  291500        6 
  291600        6 
  291700        6 
  291800        6 
  291900        6 
  292000        6 
  292100        6 
  292200        6 
  292300        6 
  292400        6 
  292500        6 
  292600        6 
  292700        6 
  292800        6 
  292900        6 
  293000        6 
  293100        6 
  293200        6 
  293300        6 
  293400        6 
  293500        6 
  293600        6 
  293700        6 
  293800        6 
  293900        6 
  294000        6 
  294100        6 
  294200        6 
  294300        6 
  294400        6 
  294500        6 
  294600        6 
  294700        6 
  294800        6 
  294900        6 
  295000        6 
  295100        6 
  295200        6 
  295300        6 
  295400        6 
  295500        6 
  295600        6 
  295700        6 
  295800        6 
  295900        6 
  296000        6 
  296100        6 
  296200        6 
  296300        6 
  296400        6 
  296500        6 
  296600        6 
  296700        6 
  296800        6 
  296900        6 
  297000        6 
  297100        6 
  297200        6 
  297300        6 
  297400        6 
  297500        6 
  297600        6 
  297700        6 
  297800        6 
  297900        6 
  298000        6 
  298100        6 
  298200        6 
  298300        6 
  298400        6 
  298500        6 
  298600        6 
  298700        6 
  298800        6 
  298900        6 
  299000        6 
  299100        6 
  299200        6 
  299300        6 
  299400        6 
  299500        6 
  299600        6 
  299700        6 
  299800        6 
  299900        6 
  300000        6 
  300100        6 
  300200        6 
  300300        6 
  300400        6 
  300500        6 
  300600        6 
  300700        6 
  300800        6 
  300900        6 
  301000        6 
  301100        6 
  301200        6 
  301300        6 
  301400        6 
  301500        6 
  301600        6 
  301700        6 
  301800        6 
  301900        6 
  302000        6 
  302100        6 
  302200        6 
  302300        6 
  302400        6 
  302500        6 
  302600        6 
  302700        6 
  302800        6 
  302900        6 
  303000        6 
  303100        6 
  303200        6 
  303300        6 
  303400        6 
  303500        6 
  303600        6 
  303700        6 
  303800        6 
  303900        6 
  304000        6 
  304100        6 
  304200        6 
  304300        6 
  304400        6 
  304500        6 
  304600        6 
  304700        6 
  304800        6 
  304900        6 
  305000        6 
  305100        6 
  305200        6 
  305300        6 
  305400        6 
  305500        6 
  305600        6 
  305700        6 
  305800        6 
  305900        6 
  306000        6 
  306100        6 
  306200        6 
  306300        6 
  306400        6 
  306500        6 
  306600        6 
  306700        6 
  306800        6 
  306900        6 
  307000        6 
  307100        6 
  307200        6 
  307300        6 
  307400        6 
  307500        6 
  307600        6 
  307700        6 
  307800        6 
  307900        6 
  308000        6 
  308100        6 
  308200        6 
  308300        6 
  308400        6 
  308500        6 
  308600        6 
  308700        6 
  308800        6 
  308900        6 
  309000        6 
  309100        6 
  309200        6 
  309300        6 
  309400        6 
  309500        6 
  309600        6 
  309700        6 
  309800        6 
  309900        6 
  310000        6 
  310100        6 
  310200        6 
  310300        6 
  310400        6 
  310500        6 
  310600        6 
  310700        6 
  310800        6 
  310900        6 
  311000        6 
  311100        6 
  311200        6 
  311300        6 
  311400        6 
  311500        6 
  311600        6 
  311700        6 
  311800        6 
  311900        6 
  312000        6 
  312100        6 
  312200        6 
  312300        6 
  312400        6 
  312500        6 
  312600        6 
  312700        6 
  312800        6 
  312900        6 
  313000        6 
  313100        6 
  313200        6 
  313300        6 
  313400        6 
  313500        6 
  313600        6 
  313700        6 
  313800        6 
  313900        6 
  314000        6 
  314100        6 
  314200        6 
  314300        6 
  314400        6 
  314500        6 
  314600        6 
  314700        6 
  314800        6 
  314900        6 
  315000        6 
  315100        6 
  315200        6 
  315300        6 
  315400        6 
  315500        6 
  315600        6 
  315700        6 
  315800        6 
  315900        6 
  316000        6 
  316100        6 
  316200        6 
  316300        6 
  316400        6 
  316500        6 
  316600        6 
  316700        6 
  316800        6 
  316900        6 
  317000        6 
  317100        6 
  317200        6 
  317300        6 
  317400        6 
  317500        6 
  317600        6 
  317700        6 
  317800        6 
  317900        6 
  318000        6 
  318100        6 
  318200        6 
  318300        6 
  318400        6 
  318500        6 
  318600        6 
  318700        6 
  318800        6 
  318900        6 
  319000        6 
  319100        6 
  319200        6 
  319300        6 
  319400        6 
  319500        6 
  319600        6 
  319700        6 
  319800        6 
  319900        6 
  320000        6 
  320100        6 
  320200        6 
  320300        6 
  320400        6 
  320500        6 
  320600        6 
  320700        6 
  320800        6 
  320900        6 
  321000        6 
  321100        6 
  321200        6 
  321300        6 
  321400        6 
  321500        6 
  321600        6 
  321700        6 
  321800        6 
  321900        6 
  322000        6 
  322100        6 
  322200        6 
  322300        6 
  322400        6 
  322500        6 
  322600        6 
  322700        6 
  322800        6 
  322900        6 
  323000        6 
  323100        6 
  323200        6 
  323300        6 
  323400        6 
  323500        6 
  323600        6 
  323700        6 
  323800        6 
  323900        6 
  324000        6 
  324100        6 
  324200        6 
  324300        6 
  324400        6 
  324500        6 
  324600        6 
  324700        6 
  324800        6 
  324900        6 
  325000        6 
  325100        6 
  325200        6 
  325300        6 
  325400        6 
  325500        6 
  325600        6 
  325700        6 
  325800        6 
  325900        6 
  326000        6 
  326100        6 
  326200        6 
  326300        6 
  326400        6 
  326500        6 
  326600        6 
  326700        6 
  326800        6 
  326900        6 
  327000        6 
  327100        6 
  327200        6 
  327300        6 
  327400        6 
  327500        6 
  327600        6 
  327700        6 
  327800        6 
  327900        6 
  328000        6 
  328100        6 
  328200        6 
  328300        6 
  328400        6 
  328500        6 
  328600        6 
  328700        6 
  328800        6 
  328900        6 
  329000        6 
  329100        6 
  329200        6 
  329300        6 
  329400        6 
  329500        6 
  329600        6 
  329700        6 
  329800        6 
  329900        6 
  330000        6 
  330100        6 
  330200        6 
  330300        6 
  330400        6 
  330500        6 
  330600        6 
  330700        6 
  330800        6 
  330900        6 
  331000        6 
  331100        6 
  331200        6 
  331300        6 
  331400        6 
  331500        6 
  331600        6 
  331700        6 
  331800        6 
  331900        6 
  332000        6 
  332100        6 
  332200        6 
  332300        6 
  332400        6 
  332500        6 
  332600        6 
  332700        6 
  332800        6 
  332900        6 
  333000        6 
  333100        6 
  333200        6 
  333300        6 
  333400        6 
  333500        6 
  333600        6 
  333700        6 
  333800        6 
  333900        6 
  334000        6 
  334100        6 
  334200        6 
  334300        6 
  334400        6 
  334500        6 
  334600        6 
  334700        6 
  334800        6 
  334900        6 
  335000        6 
  335100        6 
  335200        6 
  335300        6 
  335400        6 
  335500        6 
  335600        6 
  335700        6 
  335800        6 
  335900        6 
  336000        6 
  336100        6 
  336200        6 
  336300        6 
  336400        6 
  336500        6 
  336600        6 
  336700        6 
  336800        6 
  336900        6 
  337000        6 
  337100        6 
  337200        6 
  337300        6 
  337400        6 
  337500        6 
  337600        6 
  337700        6 
  337800        6 
  337900        6 
  338000        6 
  338100        6 
  338200        6 
  338300        6 
  338400        6 
  338500        6 
  338600        6 
  338700        6 
  338800        6 
  338900        6 
  339000        6 
  339100        6 
  339200        6 
  339300        6 
  339400        6 
  339500        6 
  339600        6 
  339700        6 
  339800        6 
  339900        6 
  340000        6 
  340100        6 
  340200        6 
  340300        6 
  340400        6 
  340500        6 
  340600        6 
  340700        6 
  340800        6 
  340900        6 
  341000        6 
  341100        6 
  341200        6 
  341300        6 
  341400        6 
  341500        6 
  341600        6 
  341700        6 
  341800        6 
  341900        6 
  342000        6 
  342100        6 
  342200        6 
  342300        6 
  342400        6 
  342500        6 
  342600        6 
  342700        6 
  342800        6 
  342900        6 
  343000        6 
  343100        6 
  343200        6 
  343300        6 
  343400        6 
  343500        6 
  343600        6 
  343700        6 
  343800        6 
  343900        6 
  344000        6 
  344100        6 
  344200        6 
  344300        6 
  344400        6 
  344500        6 
  344600        6 
  344700        6 
  344800        6 
  344900        6 
  345000        6 
  345100        6 
  345200        6 
  345300        6 
  345400        6 
  345500        6 
  345600        6 
  345700        6 
  345800        6 
  345900        6 
  346000        6 
  346100        6 
  346200        6 
  346300        6 
  346400        6 
  346500        6 
  346600        6 
  346700        6 
  346800        6 
  346900        6 
  347000        6 
  347100        6 
  347200        6 
  347300        6 
  347400        6 
  347500        6 
  347600        6 
  347700        6 
  347800        6 
  347900        6 
  348000        6 
  348100        6 
  348200        6 
  348300        6 
  348400        6 
  348500        6 
  348600        6 
  348700        6 
  348800        6 
  348900        6 
  349000        6 
  349100        6 
  349200        6 
  349300        6 
  349400        6 
  349500        6 
  349600        6 
  349700        6 
  349800        6 
  349900        6 
  350000        6 
  350100        6 
  350200        6 
  350300        6 
  350400        6 
  350500        6 
  350600        6 
  350700        6 
  350800        6 
  350900        6 
  351000        6 
  351100        6 
  351200        6 
  351300        6 
  351400        6 
  351500        6 
  351600        6 
  351700        6 
  351800        6 
  351900        6 
  352000        6 
  352100        6 
  352200        6 
  352300        6 
  352400        6 
  352500        6 
  352600        6 
  352700        6 
  352800        6 
  352900        6 
  353000        6 
  353100        6 
  353200        6 
  353300        6 
  353400        6 
  353500        6 
  353600        6 
  353700        6 
  353800        6 
  353900        6 
  354000        6 
  354100        6 
  354200        6 
  354300        6 
  354400        6 
  354500        6 
  354600        6 
  354700        6 
  354800        6 
  354900        6 
  355000        6 
  355100        6 
  355200        6 
  355300        6 
  355400        6 
  355500        6 
  355600        6 
  355700        6 
  355800        6 
  355900        6 
  356000        6 
  356100        6 
  356200        6 
  356300        6 
  356400        6 
  356500        6 
  356600        6 
  356700        6 
  356800        6 
  356900        6 
  357000        6 
  357100        6 
  357200        6 
  357300        6 
  357400        6 
  357500        6 
  357600        6 
  357700        6 
  357800        6 
  357900        6 
  358000        6 
  358100        6 
  358200        6 
  358300        6 
  358400        6 
  358500        6 
  358600        6 
  358700        6 
  358800        6 
  358900        6 
  359000        6 
  359100        6 
  359200        6 
  359300        6 
  359400        6 
  359500        6 
  359600        6 
  359700        6 
  359800        6 
  359900        6 
  360000        6 
  360100        6 
  360200        6 
  360300        6 
  360400        6 
  360500        6 
  360600        6 
  360700        6 
  360800        6 
  360900        6 
  361000        6 
  361100        6 
  361200        6 
  361300        6 
  361400        6 
  361500        6 
  361600        6 
  361700        6 
  361800        6 
  361900        6 
  362000        6 
  362100        6 
  362200        6 
  362300        6 
  362400        6 
  362500        6 
  362600        6 
  362700        6 
  362800        6 
  362900        6 
  363000        6 
  363100        6 
  363200        6 
  363300        6 
  363400        6 
  363500        6 
  363600        6 
  363700        6 
  363800        6 
  363900        6 
  364000        6 
  364100        6 
  364200        6 
  364300        6 
  364400        6 
  364500        6 
  364600        6 
  364700        6 
  364800        6 
  364900        6 
  365000        6 
  365100        6 
  365200        6 
  365300        6 
  365400        6 
  365500        6 
  365600        6 
  365700        6 
  365800        6 
  365900        6 
  366000        6 
  366100        6 
  366200        6 
  366300        6 
  366400        6 
  366500        6 
  366600        6 
  366700        6 
  366800        6 
  366900        6 
  367000        6 
  367100        6 
  367200        6 
  367300        6 
  367400        6 
  367500        6 
  367600        6 
  367700        6 
  367800        6 
  367900        6 
  368000        6 
  368100        6 
  368200        6 
  368300        6 
  368400        6 
  368500        6 
  368600        6 
  368700        6 
  368800        6 
  368900        6 
  369000        6 
  369100        6 
  369200        6 
  369300        6 
  369400        6 
  369500        6 
  369600        6 
  369700        6 
  369800        6 
  369900        6 
  370000        6 
  370100        6 
  370200        6 
  370300        6 
  370400        6 
  370500        6 
  370600        6 
  370700        6 
  370800        6 
  370900        6 
  371000        6 
  371100        6 
  371200        6 
  371300        6 
  371400        6 
  371500        6 
  371600        6 
  371700        6 
  371800        6 
  371900        6 
  372000        6 
  372100        6 
  372200        6 
  372300        6 
  372400        6 
  372500        6 
  372600        6 
  372700        6 
  372800        6 
  372900        6 
  373000        6 
  373100        6 
  373200        6 
  373300        6 
  373400        6 
  373500        6 
  373600        6 
  373700        6 
  373800        6 
  373900        6 
  374000        6 
  374100        6 
  374200        6 
  374300        6 
  374400        6 
  374500        6 
  374600        6 
  374700        6 
  374800        6 
  374900        6 
  375000        6 
  375100        6 
  375200        6 
  375300        6 
  375400        6 
  375500        6 
  375600        6 
  375700        6 
  375800        6 
  375900        6 
  376000        6 
  376100        6 
  376200        6 
  376300        6 
  376400        6 
  376500        6 
  376600        6 
  376700        6 
  376800        6 
  376900        6 
  377000        6 
  377100        6 
  377200        6 
  377300        6 
  377400        6 
  377500        6 
  377600        6 
  377700        6 
  377800        6 
  377900        6 
  378000        6 
  378100        6 
  378200        6 
  378300        6 
  378400        6 
  378500        6 
  378600        6 
  378700        6 
  378800        6 
  378900        6 
  379000        6 
  379100        6 
  379200        6 
  379300        6 
  379400        6 
  379500        6 
  379600        6 
  379700        6 
  379800        6 
  379900        6 
  380000        6 
  380100        6 
  380200        6 
  380300        6 
  380400        6 
  380500        6 
  380600        6 
  380700        6 
  380800        6 
  380900        6 
  381000        6 
  381100        6 
  381200        6 
  381300        6 
  381400        6 
  381500        6 
  381600        6 
  381700        6 
  381800        6 
  381900        6 
  382000        6 
  382100        6 
  382200        6 
  382300        6 
  382400        6 
  382500        6 
  382600        6 
  382700        6 
  382800        6 
  382900        6 
  383000        6 
  383100        6 
  383200        6 
  383300        6 
  383400        6 
  383500        6 
  383600        6 
  383700        6 
  383800        6 
  383900        6 
  384000        6 
  384100        6 
  384200        6 
  384300        6 
  384400        6 
  384500        6 
  384600        6 
  384700        6 
  384800        6 
  384900        6 
  385000        6 
  385100        6 
  385200        6 
  385300        6 
  385400        6 
  385500        6 
  385600        6 
  385700        6 
  385800        6 
  385900        6 
  386000        6 
  386100        6 
  386200        6 
  386300        6 
  386400        6 
  386500        6 
  386600        6 
  386700        6 
  386800        6 
  386900        6 
  387000        6 
  387100        6 
  387200        6 
  387300        6 
  387400        6 
  387500        6 
  387600        6 
  387700        6 
  387800        6 
  387900        6 
  388000        6 
  388100        6 
  388200        6 
  388300        6 
  388400        6 
  388500        6 
  388600        6 
  388700        6 
  388800        6 
  388900        6 
  389000        6 
  389100        6 
  389200        6 
  389300        6 
  389400        6 
  389500        6 
  389600        6 
  389700        6 
  389800        6 
  389900        6 
  390000        6 
  390100        6 
  390200        6 
  390300        6 
  390400        6 
  390500        6 
  390600        6 
  390700        6 
  390800        6 
  390900        6 
  391000        6 
  391100        6 
  391200        6 
  391300        6 
  391400        6 
  391500        6 
  391600        6 
  391700        6 
  391800        6 
  391900        6 
  392000        6 
  392100        6 
  392200        6 
  392300        6 
  392400        6 
  392500        6 
  392600        6 
  392700        6 
  392800        6 
  392900        6 
  393000        6 
  393100        6 
  393200        6 
  393300        6 
  393400        6 
  393500        6 
  393600        6 
  393700        6 
  393800        6 
  393900        6 
  394000        6 
  394100        6 
  394200        6 
  394300        6 
  394400        6 
  394500        6 
  394600        6 
  394700        6 
  394800        6 
  394900        6 
  395000        6 
  395100        6 
  395200        6 
  395300        6 
  395400        6 
  395500        6 
  395600        6 
  395700        6 
  395800        6 
  395900        6 
  396000        6 
  396100        6 
  396200        6 
  396300        6 
  396400        6 
  396500        6 
  396600        6 
  396700        6 
  396800        6 
  396900        6 
  397000        6 
  397100        6 
  397200        6 
  397300        6 
  397400        6 
  397500        6 
  397600        6 
  397700        6 
  397800        6 
  397900        6 
  398000        6 
  398100        6 
  398200        6 
  398300        6 
  398400        6 
  398500        6 
  398600        6 
  398700        6 
  398800        6 
  398900        6 
  399000        6 
  399100        6 
  399200        6 
  399300        6 
  399400        6 
  399500        6 
  399600        6 
  399700        6 
  399800        6 
  399900        6 
  400000        6 
  400100        6 
  400200        6 
  400300        6 
  400400        6 
  400500        6 
  400600        6 
  400700        6 
  400800        6 
  400900        6 
  401000        6 
  401100        6 
  401200        6 
  401300        6 
  401400        6 
  401500        6 
  401600        6 
  401700        6 
  401800        6 
  401900        6 
  402000        6 
  402100        6 
  402200        6 
  402300        6 
  402400        6 
  402500        6 
  402600        6 
  402700        6 
  402800        6 
  402900        6 
  403000        6 
  403100        6 
  403200        6 
  403300        6 
  403400        6 
  403500        6 
  403600        6 
  403700        6 
  403800        6 
  403900        6 
  404000        6 
  404100        6 
  404200        6 
  404300        6 
  404400        6 
  404500        6 
  404600        6 
  404700        6 
  404800        6 
  404900        6 
  405000        6 
  405100        6 
  405200        6 
  405300        6 
  405400        6 
  405500        6 
  405600        6 
  405700        6 
  405800        6 
  405900        6 
  406000        6 
  406100        6 
  406200        6 
  406300        6 
  406400        6 
  406500        6 
  406600        6 
  406700        6 
  406800        6 
  406900        6 
  407000        6 
  407100        6 
  407200        6 
  407300        6 
  407400        6 
  407500        6 
  407600        6 
  407700        6 
  407800        6 
  407900        6 
  408000        6 
[...]
  501200        6 
  501300        6 
  501400        6 
  501500        6 
  501600        6 
  501700        6 
  501800        6 
  501900        6 
  502000        6 
  502100        6 
  502200        6 
  502300        6 
  502400        6 
  502500        6 
  502600        6 
  502700        6 
  502800        6 
  502900        6 
  503000        6 
  503100        6 
  503200        6 
  503300        6 
  503400        6 
  503500        6 
  503600        6 
  503700        6 
  503800        6 
  503900        6 
  504000        6 
  504100        6 
  504200        6 
  504300        6 
  504400        6 
  504500        6 
  504600        6 
  504700        6 
  504800        6 
  504900        6 
  505000        6 
  505100        6 
  505200        6 
  505300        6 
  505400        6 
  505500        6 
  505600        6 
  505700        6 
  505800        6 
  505900        6 
  506000        6 
  506100        6 
  506200        6 
  506300        6 
  506400        6 
  506500        6 
  506600        6 
  506700        6 
  506800        6 
  506900        6 
  507000        6 
  507100        6 
  507200        6 
  507300        6 
  507400        6 
  507500        6 
  507600        6 
  507700        6 
  507800        6 
  507900        6 
  508000        6 
  508100        6 
  508200        6 
  508300        6 
  508400        6 
  508500        6 
  508600        6 
  508700        6 
  508800        6 
  508900        6 
  509000        6 
  509100        6 
  509200        6 
  509300        6 
  509400        6 
  509500        6 
  509600        6 
  509700        6 
  509800        6 
  509900        6 
  510000        6 
  510100        6 
  510200        6 
  510300        6 
  510400        6 
  510500        6 
  510600        6 
  510700        6 
  510800        6 
  510900        6 
  511000        6 
  511100        6 
  511200        6 
  511300        6 
  511400        6 
  511500        6 
  511600        6 
  511700        6 
  511800        6 
  511900        6 
  512000        6 
  512100        6 
  512200        6 
  512300        6 
  512400        6 
  512500        6 
  512600        6 
  512700        6 
  512800        6 
  512900        6 
  513000        6 
  513100        6 
  513200        6 
  513300        6 
  513400        6 
  513500        6 
  513600        6 
  513700        6 
  513800        6 
  513900        6 
  514000        6 
  514100        6 
  514200        6 
  514300        6 
  514400        6 
  514500        6 
  514600        6 
  514700        6 
  514800        6 
  514900        6 
  515000        6 
  515100        6 
  515200        6 
  515300        6 
  515400        6 
  515500        6 
  515600        6 
  515700        6 
  515800        6 
  515900        6 
  516000        6 
  516100        6 
  516200        6 
  516300        6 
  516400        6 
  516500        6 
  516600        6 
  516700        6 
  516800        6 
  516900        6 
  517000        6 
  517100        6 
  517200        6 
  517300        6 
  517400        6 
  517500        6 
  517600        6 
  517700        6 
  517800        6 
  517900        6 
  518000        6 
  518100        6 
  518200        6 
  518300        6 
  518400        6 
  518500        6 
  518600        6 
  518700        6 
  518800        6 
  518900        6 
  519000        6 
  519100        6 
  519200        6 
  519300        6 
  519400        6 
  519500        6 
  519600        6 
  519700        6 
  519800        6 
  519900        6 
  520000        6 
  520100        6 
  520200        6 
  520300        6 
  520400        6 
  520500        6 
  520600        6 
  520700        6 
  520800        6 
  520900        6 
  521000        6 
  521100        6 
  521200        6 
  521300        6 
  521400        6 
  521500        6 
  521600        6 
  521700        6 
  521800        6 
  521900        6 
  522000        6 
  522100        6 
  522200        6 
  522300        6 
  522400        6 
  522500        6 
  522600        6 
  522700        6 
  522800        6 
  522900        6 
  523000        6 
  523100        6 
  523200        6 
  523300        6 
  523400        6 
  523500        6 
  523600        6 
  523700        6 
  523800        6 
  523900        6 
  524000        6 
  524100        6 
  524200        6 
  524300        6 
  524400        6 
  524500        6 
  524600        6 
  524700        6 
  524800        6 
  524900        6 
  525000        6 
  525100        6 
  525200        6 
  525300        6 
  525400        6 
  525500        6 
  525600        6 
  525700        6 
  525800        6 
  525900        6 
  526000        6 
  526100        6 
  526200        6 
  526300        6 
  526400        6 
  526500        6 
  526600        6 
  526700        6 
  526800        6 
  526900        6 
  527000        6 
  527100        6 
  527200        6 
  527300        6 
  527400        6 
  527500        6 
  527600        6 
  527700        6 
  527800        6 
  527900        6 
  528000        6 
  528100        6 
  528200        6 
  528300        6 
  528400        6 
  528500        6 
  528600        6 
  528700        6 
  528800        6 
  528900        6 
  529000        6 
  529100        6 
  529200        6 
  529300        6 
  529400        6 
  529500        6 
  529600        6 
  529700        6 
  529800        6 
  529900        6 
  530000        6 
  530100        6 
  530200        6 
  530300        6 
  530400        6 
  530500        6 
  530600        6 
  530700        6 
  530800        6 
  530900        6 
  531000        6 
  531100        6 
  531200        6 
  531300        6 
  531400        6 
  531500        6 
  531600        6 
  531700        6 
  531800        6 
  531900        6 
  532000        6 
  532100        6 
  532200        6 
  532300        6 
  532400        6 
  532500        6 
  532600        6 
  532700        6 
  532800        6 
  532900        6 
  533000        6 
  533100        6 
  533200        6 
  533300        6 
  533400        6 
  533500        6 
  533600        6 
  533700        6 
  533800        6 
  533900        6 
  534000        6 
  534100        6 
  534200        6 
  534300        6 
  534400        6 
  534500        6 
  534600        6 
  534700        6 
  534800        6 
  534900        6 
  535000        6 
  535100        6 
  535200        6 
  535300        6 
  535400        6 
  535500        6 
  535600        6 
  535700        6 
  535800        6 
  535900        6 
  536000        6 
  536100        6 
  536200        6 
  536300        6 
  536400        6 
  536500        6 
  536600        6 
  536700        6 
  536800        6 
  536900        6 
  537000        6 
  537100        6 
  537200        6 
  537300        6 
  537400        6 
  537500        6 
  537600        6 
  537700        6 
  537800        6 
  537900        6 
  538000        6 
  538100        6 
  538200        6 
  538300        6 
  538400        6 
  538500        6 
  538600        6 
  538700        6 
  538800        6 
  538900        6 
  539000        6 
  539100        6 
  539200        6 
  539300        6 
  539400        6 
  539500        6 
  539600        6 
  539700        6 
  539800        6 
  539900        6 
  540000        6 
  540100        6 
  540200        6 
  540300        6 
  540400        6 
  540500        6 
  540600        6 
  540700        6 
  540800        6 
  540900        6 
  541000        6 
  541100        6 
  541200        6 
  541300        6 
  541400        6 
  541500        6 
  541600        6 
  541700        6 
  541800        6 
  541900        6 
  542000        6 
  542100        6 
  542200        6 
  542300        6 
  542400        6 
  542500        6 
  542600        6 
  542700        6 
  542800        6 
  542900        6 
  543000        6 
  543100        6 
  543200        6 
  543300        6 
  543400        6 
  543500        6 
  543600        6 
  543700        6 
  543800        6 
  543900        6 
  544000        6 
  544100        6 
  544200        6 
  544300        6 
  544400        6 
  544500        6 
  544600        6 
  544700        6 
  544800        6 
  544900        6 
  545000        6 
  545100        6 
  545200        6 
  545300        6 
  545400        6 
  545500        6 
  545600        6 
  545700        6 
  545800        6 
  545900        6 
  546000        6 
  546100        6 
  546200        6 
  546300        6 
  546400        6 
  546500        6 
  546600        6 
  546700        6 
  546800        6 
  546900        6 
  547000        6 
  547100        6 
  547200        6 
  547300        6 
  547400        6 
  547500        6 
  547600        6 
  547700        6 
  547800        6 
  547900        6 
  548000        6 
  548100        6 
  548200        6 
  548300        6 
  548400        6 
  548500        6 
  548600        6 
  548700        6 
  548800        6 
  548900        6 
  549000        6 
  549100        6 
  549200        6 
  549300        6 
  549400        6 
  549500        6 
  549600        6 
  549700        6 
  549800        6 
  549900        6 
  550000        6 
  550100        6 
  550200        6 
  550300        6 
  550400        6 
  550500        6 
  550600        6 
  550700        6 
  550800        6 
  550900        6 
  551000        6 
  551100        6 
  551200        6 
  551300        6 
  551400        6 
  551500        6 
  551600        6 
  551700        6 
  551800        6 
  551900        6 
  552000        6 
  552100        6 
  552200        6 
  552300        6 
  552400        6 
  552500        6 
  552600        6 
  552700        6 
  552800        6 
  552900        6 
  553000        6 
  553100        6 
  553200        6 
  553300        6 
  553400        6 
  553500        6 
  553600        6 
  553700        6 
  553800        6 
  553900        6 
  554000        6 
  554100        6 
  554200        6 
  554300        6 
  554400        6 
  554500        6 
  554600        6 
  554700        6 
  554800        6 
  554900        6 
  555000        6 
  555100        6 
  555200        6 
  555300        6 
  555400        6 
  555500        6 
  555600        6 
  555700        6 
  555800        6 
  555900        6 
  556000        6 
  556100        6 
  556200        6 
  556300        6 
  556400        6 
  556500        6 
  556600        6 
  556700        6 
  556800        6 
  556900        6 
  557000        6 
  557100        6 
  557200        6 
  557300        6 
  557400        6 
  557500        6 
  557600        6 
  557700        6 
  557800        6 
  557900        6 
  558000        6 
  558100        6 
  558200        6 
  558300        6 
  558400        6 
  558500        6 
  558600        6 
  558700        6 
  558800        6 
  558900        6 
  559000        6 
  559100        6 
  559200        6 
  559300        6 
  559400        6 
  559500        6 
  559600        6 
  559700        6 
  559800        6 
  559900        6 
  560000        6 
  560100        6 
  560200        6 
  560300        6 
  560400        6 
  560500        6 
  560600        6 
  560700        6 
  560800        6 
  560900        6 
  561000        6 
  561100        6 
  561200        6 
  561300        6 
  561400        6 
  561500        6 
  561600        6 
  561700        6 
  561800        6 
  561900        6 
  562000        6 
  562100        6 
  562200        6 
  562300        6 
  562400        6 
  562500        6 
  562600        6 
  562700        6 
  562800        6 
  562900        6 
  563000        6 
  563100        6 
  563200        6 
  563300        6 
  563400        6 
  563500        6 
  563600        6 
  563700        6 
  563800        6 
  563900        6 
  564000        6 
  564100        6 
  564200        6 
  564300        6 
  564400        6 
  564500        6 
  564600        6 
  564700        6 
  564800        6 
  564900        6 
  565000        6 
  565100        6 
  565200        6 
  565300        6 
  565400        6 
  565500        6 
  565600        6 
  565700        6 
  565800        6 
  565900        6 
  566000        6 
  566100        6 
  566200        6 
  566300        6 
  566400        6 
  566500        6 
  566600        6 
  566700        6 
  566800        6 
  566900        6 
  567000        6 
  567100        6 
  567200        6 
  567300        6 
  567400        6 
  567500        6 
  567600        6 
  567700        6 
  567800        6 
  567900        6 
  568000        6 
  568100        6 
  568200        6 
  568300        6 
  568400        6 
  568500        6 
  568600        6 
  568700        6 
  568800        6 
  568900        6 
  569000        6 
  569100        6 
  569200        6 
  569300        6 
  569400        6 
  569500        6 
  569600        6 
  569700        6 
  569800        6 
  569900        6 
  570000        6 
  570100        6 
  570200        6 
  570300        6 
  570400        6 
  570500        6 
  570600        6 
  570700        6 
  570800        6 
  570900        6 
  571000        6 
  571100        6 
  571200        6 
  571300        6 
  571400        6 
  571500        6 
  571600        6 
  571700        6 
  571800        6 
  571900        6 
  572000        6 
  572100        6 
  572200        6 
  572300        6 
  572400        6 
  572500        6 
  572600        6 
  572700        6 
  572800        6 
  572900        6 
  573000        6 
  573100        6 
  573200        6 
  573300        6 
  573400        6 
  573500        6 
  573600        6 
  573700        6 
  573800        6 
  573900        6 
  574000        6 
  574100        6 
  574200        6 
  574300        6 
  574400        6 
  574500        6 
  574600        6 
  574700        6 
  574800        6 
  574900        6 
  575000        6 
  575100        6 
  575200        6 
  575300        6 
  575400        6 
  575500        6 
  575600        6 
  575700        6 
  575800        6 
  575900        6 
  576000        6 
  576100        6 
  576200        6 
  576300        6 
  576400        6 
  576500        6 
  576600        6 
  576700        6 
  576800        6 
  576900        6 
  577000        6 
  577100        6 
  577200        6 
  577300        6 
  577400        6 
  577500        6 
  577600        6 
  577700        6 
  577800        6 
  577900        6 
  578000        6 
  578100        6 
  578200        6 
  578300        6 
  578400        6 
  578500        6 
  578600        6 
  578700        6 
  578800        6 
  578900        6 
  579000        6 
  579100        6 
  579200        6 
  579300        6 
  579400        6 
  579500        6 
  579600        6 
  579700        6 
  579800        6 
  579900        6 
  580000        6 
  580100        6 
  580200        6 
  580300        6 
  580400        6 
  580500        6 
  580600        6 
  580700        6 
  580800        6 
  580900        6 
  581000        6 
  581100        6 
  581200        6 
  581300        6 
  581400        6 
  581500        6 
  581600        6 
  581700        6 
  581800        6 
  581900        6 
  582000        6 
  582100        6 
  582200        6 
  582300        6 
  582400        6 
  582500        6 
  582600        6 
  582700        6 
  582800        6 
  582900        6 
  583000        6 
  583100        6 
  583200        6 
  583300        6 
  583400        6 
  583500        6 
  583600        6 
  583700        6 
  583800        6 
  583900        6 
  584000        6 
  584100        6 
  584200        6 
  584300        6 
  584400        6 
  584500        6 
  584600        6 
  584700        6 
  584800        6 
  584900        6 
  585000        6 
  585100        6 
  585200        6 
  585300        6 
  585400        6 
  585500        6 
  585600        6 
  585700        6 
  585800        6 
  585900        6 
  586000        6 
  586100        6 
  586200        6 
  586300        6 
  586400        6 
  586500        6 
  586600        6 
  586700        6 
  586800        6 
  586900        6 
  587000        6 
  587100        6 
  587200        6 
  587300        6 
  587400        6 
  587500        6 
  587600        6 
  587700        6 
  587800        6 
  587900        6 
  588000        6 
  588100        6 
  588200        6 
  588300        6 
  588400        6 
  588500        6 
  588600        6 
  588700        6 
  588800        6 
  588900        6 
  589000        6 
  589100        6 
  589200        6 
  589300        6 
  589400        6 
  589500        6 
  589600        6 
  589700        6 
  589800        6 
  589900        6 
  590000        6 
  590100        6 
  590200        6 
  590300        6 
  590400        6 
  590500        6 
  590600        6 
  590700        6 
  590800        6 
  590900        6 
  591000        6 
  591100        6 
  591200        6 
  591300        6 
  591400        6 
  591500        6 
  591600        6 
  591700        6 
  591800        6 
  591900        6 
  592000        6 
  592100        6 
  592200        6 
  592300        6 
  592400        6 
  592500        6 
  592600        6 
  592700        6 
  592800        6 
  592900        6 
  593000        6 
  593100        6 
  593200        6 
  593300        6 
  593400        6 
  593500        6 
  593600        6 
  593700        6 
  593800        6 
  593900        6 
  594000        6 
  594100        6 
  594200        6 
  594300        6 
  594400        6 
  594500        6 
  594600        6 
  594700        6 
  594800        6 
  594900        6 
  595000        6 
  595100        6 
  595200        6 
  595300        6 
  595400        6 
  595500        6 
  595600        6 
  595700        6 
  595800        6 
  595900        6 
  596000        6 
  596100        6 
  596200        6 
  596300        6 
  596400        6 
  596500        6 
  596600        6 
  596700        6 
  596800        6 
  596900        6 
  597000        6 
  597100        6 
  597200        6 
  597300        6 
  597400        6 
  597500        6 
  597600        6 
  597700        6 
  597800        6 
  597900        6 
  598000        6 
  598100        6 
  598200        6 
  598300        6 
  598400        6 
  598500        6 
  598600        6 
  598700        6 
  598800        6 
  598900        6 
  599000        6 
  599100        6 
  599200        6 
  599300        6 
  599400        6 
  599500        6 
  599600        6 
  599700        6 
  599800        6 
  599900        6 
  600000        6 
Loop time of 15.996 on 1 procs for 600000 steps with 6 atoms

Performance: 324080917773518.188 ns/day, 0.000 hours/ns, 37509.365 timesteps/s
84.7% CPU use with 1 MPI tasks x no OpenMP threads

MPI task timing breakdown:
Section |  min time  |  avg time  |  max time  |%varavg| %total
---------------------------------------------------------------
Pair    | 0.6314     | 0.6314     | 0.6314     |   0.0 |  3.95
Bond    | 0.11854    | 0.11854    | 0.11854    |   0.0 |  0.74
Neigh   | 2.2173e-05 | 2.2173e-05 | 2.2173e-05 |   0.0 |  0.00
Comm    | 1.0047     | 1.0047     | 1.0047     |   0.0 |  6.28
Output  | 0.23346    | 0.23346    | 0.23346    |   0.0 |  1.46
Modify  | 13.663     | 13.663     | 13.663     |   0.0 | 85.42
Other   |            | 0.3446     |            |       |  2.15

Nlocal:    6 ave 6 max 6 min
Histogram: 1 0 0 0 0 0 0 0 0 0
Nghost:    51 ave 51 max 51 min
Histogram: 1 0 0 0 0 0 0 0 0 0
Neighs:    4 ave 4 max 4 min
Histogram: 1 0 0 0 0 0 0 0 0 0
FullNghs:  50 ave 50 max 50 min
Histogram: 1 0 0 0 0 0 0 0 0 0

Total # of neighbors = 50
Ave neighs/atom = 8.33333
Ave special neighs/atom = 0.666667
Neighbor list builds = 3
Dangerous builds = 0
Total wall time: 0:00:16
