ITEM: TIMESTEP
0
ITEM: NUMBER OF ATOMS
7
ITEM: BOX BOUNDS pp pp ff
-1.0000000000000000e+01 1.0000000000000000e+01
-1.0000000000000000e+01 1.0000000000000000e+01
-2.0499999999999998e+00 2.0499999999999998e+00
ITEM: ATOMS id type x y z mux muy muz 
1 1 -5 0 0 0.000267559 0 1.63832e-20 
2 1 0 5 0 0.000267559 0 1.63832e-20 
3 1 5 0 0 0.000267559 0 1.63832e-20 
4 2 -5 -3 0 3.34448e-05 0 2.0479e-21 
5 2 0 -3 0 3.34448e-05 0 2.0479e-21 
6 2 5 -3 0 3.34448e-05 0 2.0479e-21 
7 2 5 5 0 3.34448e-05 0 2.0479e-21 
ITEM: TIMESTEP
333
ITEM: NUMBER OF ATOMS
7
ITEM: BOX BOUNDS pp pp ff
-1.0000000000000000e+01 1.0000000000000000e+01
-1.0000000000000000e+01 1.0000000000000000e+01
-2.0499999999999998e+00 2.0499999999999998e+00
ITEM: ATOMS id type x y z mux muy muz 
1 1 -4.78791 0.0416053 -0.0453677 -0.000128897 0.000234463 1.63832e-20 
2 1 -0.0376922 4.53535 0.00466315 -0.000128897 0.000234463 1.63832e-20 
3 1 4.6311 0.0932858 -0.0154345 -0.000128897 0.000234463 1.63832e-20 
4 2 -4.81185 -2.90535 -0.0443187 -1.61122e-05 2.93079e-05 2.0479e-21 
5 2 -0.0589665 -2.98732 -0.0015281 -1.61122e-05 2.93079e-05 2.0479e-21 
6 2 4.91112 -2.84132 0.0503896 -1.61122e-05 2.93079e-05 2.0479e-21 
7 2 4.92224 4.86954 -0.0383988 -1.61122e-05 2.93079e-05 2.0479e-21 
ITEM: TIMESTEP
666
ITEM: NUMBER OF ATOMS
7
ITEM: BOX BOUNDS pp pp ff
-1.0000000000000000e+01 1.0000000000000000e+01
-1.0000000000000000e+01 1.0000000000000000e+01
-2.0499999999999998e+00 2.0499999999999998e+00
ITEM: ATOMS id type x y z mux muy muz 
1 1 -4.45279 0.280163 0.0113516 -0.000143365 -0.000225907 1.63832e-20 
2 1 -0.0222581 3.87206 -0.00341762 -0.000143365 -0.000225907 1.63832e-20 
3 1 4.02431 0.363958 0.0102079 -0.000143365 -0.000225907 1.63832e-20 
4 2 -4.7265 -2.8337 -0.0193669 -1.79206e-05 -2.82384e-05 2.0479e-21 
5 2 -0.0671312 -2.85362 -0.0353265 -1.79206e-05 -2.82384e-05 2.0479e-21 
6 2 5.08316 -2.5775 0.00511842 -1.79206e-05 -2.82384e-05 2.0479e-21 
7 2 4.69409 4.63765 -0.0330331 -1.79206e-05 -2.82384e-05 2.0479e-21 
ITEM: TIMESTEP
999
ITEM: NUMBER OF ATOMS
7
ITEM: BOX BOUNDS pp pp ff
-1.0000000000000000e+01 1.0000000000000000e+01
-1.0000000000000000e+01 1.0000000000000000e+01
-2.0499999999999998e+00 2.0499999999999998e+00
ITEM: ATOMS id type x y z mux muy muz 
1 1 -3.64253 0.379386 0.0116481 0.000267031 -1.68001e-05 1.63832e-20 
2 1 0.0844461 2.83182 -0.0293378 0.000267031 -1.68001e-05 1.63832e-20 
3 1 3.34697 0.741974 -0.00721967 0.000267031 -1.68001e-05 1.63832e-20 
4 2 -4.47569 -2.58009 -0.0427966 3.33788e-05 -2.10002e-06 2.0479e-21 
5 2 -0.0972755 -2.77412 -0.0464004 3.33788e-05 -2.10002e-06 2.0479e-21 
6 2 4.91969 -1.89634 0.02153 3.33788e-05 -2.10002e-06 2.0479e-21 
7 2 4.35152 4.11461 -0.0441954 3.33788e-05 -2.10002e-06 2.0479e-21 
ITEM: TIMESTEP
1332
ITEM: NUMBER OF ATOMS
7
ITEM: BOX BOUNDS pp pp ff
-1.0000000000000000e+01 1.0000000000000000e+01
-1.0000000000000000e+01 1.0000000000000000e+01
-2.0499999999999998e+00 2.0499999999999998e+00
ITEM: ATOMS id type x y z mux muy muz 
1 1 -3.08889 -0.289161 -0.0255515 -0.000113921 0.000242094 1.63832e-20 
2 1 -0.603463 2.77866 0.0033969 -0.000113921 0.000242094 1.63832e-20 
3 1 3.57146 1.18454 0.0452673 -0.000113921 0.000242094 1.63832e-20 
4 2 -4.41634 -2.90779 0.0113896 -1.42401e-05 3.02618e-05 2.0479e-21 
5 2 -0.143041 -2.44878 0.0178327 -1.42401e-05 3.02618e-05 2.0479e-21 
6 2 4.87432 -1.45361 0.0347878 -1.42401e-05 3.02618e-05 2.0479e-21 
7 2 4.34954 4.05565 0.0379511 -1.42401e-05 3.02618e-05 2.0479e-21 
ITEM: TIMESTEP
1665
ITEM: NUMBER OF ATOMS
7
ITEM: BOX BOUNDS pp pp ff
-1.0000000000000000e+01 1.0000000000000000e+01
-1.0000000000000000e+01 1.0000000000000000e+01
-2.0499999999999998e+00 2.0499999999999998e+00
ITEM: ATOMS id type x y z mux muy muz 
1 1 -2.63912 -0.77364 -0.0364949 -0.000157267 -0.000216459 1.63832e-20 
2 1 -0.667625 2.54717 -0.0528573 -0.000157267 -0.000216459 1.63832e-20 
3 1 3.11899 1.55241 -0.00146093 -0.000157267 -0.000216459 1.63832e-20 
4 2 -4.57498 -3.0339 -0.0326372 -1.96584e-05 -2.70574e-05 2.0479e-21 
5 2 -0.0248159 -2.28048 -0.0184078 -1.96584e-05 -2.70574e-05 2.0479e-21 
6 2 4.92995 -1.14617 0.0125912 -1.96584e-05 -2.70574e-05 2.0479e-21 
7 2 4.23317 4.30466 0.0113299 -1.96584e-05 -2.70574e-05 2.0479e-21 
ITEM: TIMESTEP
1998
ITEM: NUMBER OF ATOMS
7
ITEM: BOX BOUNDS pp pp ff
-1.0000000000000000e+01 1.0000000000000000e+01
-1.0000000000000000e+01 1.0000000000000000e+01
-2.0499999999999998e+00 2.0499999999999998e+00
ITEM: ATOMS id type x y z mux muy muz 
1 1 -2.24848 -1.27069 0.0119229 0.000265449 -3.3534e-05 1.63832e-20 
2 1 -1.07749 2.69486 0.000974653 0.000265449 -3.3534e-05 1.63832e-20 
3 1 2.93139 1.40507 -0.0106246 0.000265449 -3.3534e-05 1.63832e-20 
4 2 -4.61036 -3.2717 0.02926 3.31811e-05 -4.19175e-06 2.0479e-21 
5 2 0.468769 -2.3425 -0.0399735 3.31811e-05 -4.19175e-06 2.0479e-21 
6 2 4.79611 -0.929101 -0.00106127 3.31811e-05 -4.19175e-06 2.0479e-21 
7 2 3.93336 4.41158 -0.0552081 3.31811e-05 -4.19175e-06 2.0479e-21 
ITEM: TIMESTEP
2331
ITEM: NUMBER OF ATOMS
7
ITEM: BOX BOUNDS pp pp ff
-1.0000000000000000e+01 1.0000000000000000e+01
-1.0000000000000000e+01 1.0000000000000000e+01
-2.0499999999999998e+00 2.0499999999999998e+00
ITEM: ATOMS id type x y z mux muy muz 
1 1 -2.1209 -1.45906 -0.00928321 -9.84949e-05 0.00024877 1.63832e-20 
2 1 -1.43668 2.29807 0.0130204 -9.84949e-05 0.00024877 1.63832e-20 
3 1 2.77507 1.62712 -0.0473572 -9.84949e-05 0.00024877 1.63832e-20 
4 2 -4.50504 -3.26896 -0.0385441 -1.23119e-05 3.10962e-05 2.0479e-21 
5 2 0.951418 -2.05094 0.0137779 -1.23119e-05 3.10962e-05 2.0479e-21 
6 2 4.74203 -0.690227 0.00171755 -1.23119e-05 3.10962e-05 2.0479e-21 
7 2 3.69661 4.44422 -0.0303347 -1.23119e-05 3.10962e-05 2.0479e-21 
ITEM: TIMESTEP
2664
ITEM: NUMBER OF ATOMS
7
ITEM: BOX BOUNDS pp pp ff
-1.0000000000000000e+01 1.0000000000000000e+01
-1.0000000000000000e+01 1.0000000000000000e+01
-2.0499999999999998e+00 2.0499999999999998e+00
ITEM: ATOMS id type x y z mux muy muz 
1 1 -1.65282 -1.71831 -0.0109477 -0.000170548 -0.000206157 1.63832e-20 
2 1 -1.55598 2.32493 -0.0328343 -0.000170548 -0.000206157 1.63832e-20 
3 1 2.17557 1.25424 -0.0426081 -0.000170548 -0.000206157 1.63832e-20 
4 2 -4.12526 -3.32967 -0.04013 -2.13185e-05 -2.57697e-05 2.0479e-21 
5 2 1.3322 -1.61862 0.029191 -2.13185e-05 -2.57697e-05 2.0479e-21 
6 2 4.60956 -0.528097 0.00995589 -2.13185e-05 -2.57697e-05 2.0479e-21 
7 2 3.35669 4.1051 0.00805073 -2.13185e-05 -2.57697e-05 2.0479e-21 
ITEM: TIMESTEP
2997
ITEM: NUMBER OF ATOMS
7
ITEM: BOX BOUNDS pp pp ff
-1.0000000000000000e+01 1.0000000000000000e+01
-1.0000000000000000e+01 1.0000000000000000e+01
-2.0499999999999998e+00 2.0499999999999998e+00
ITEM: ATOMS id type x y z mux muy muz 
1 1 -1.18966 -1.3331 0.0344844 0.000262819 -5.01355e-05 1.63832e-20 
2 1 -1.80489 2.54146 0.0129201 0.000262819 -5.01355e-05 1.63832e-20 
3 1 1.83334 1.1076 0.0136159 0.000262819 -5.01355e-05 1.63832e-20 
4 2 -3.6082 -3.2843 -0.00328729 3.28524e-05 -6.26693e-06 2.0479e-21 
5 2 1.72963 -1.89184 0.0237962 3.28524e-05 -6.26693e-06 2.0479e-21 
6 2 4.33497 -0.48466 0.027872 3.28524e-05 -6.26693e-06 2.0479e-21 
7 2 3.07589 3.8947 0.0392375 3.28524e-05 -6.26693e-06 2.0479e-21 
ITEM: TIMESTEP
3330
ITEM: NUMBER OF ATOMS
7
ITEM: BOX BOUNDS pp pp ff
-1.0000000000000000e+01 1.0000000000000000e+01
-1.0000000000000000e+01 1.0000000000000000e+01
-2.0499999999999998e+00 2.0499999999999998e+00
ITEM: ATOMS id type x y z mux muy muz 
1 1 -1.30677 -1.22158 0.0362216 -8.26801e-05 0.000254463 1.63832e-20 
2 1 -1.83648 2.57373 -0.00909201 -8.26801e-05 0.000254463 1.63832e-20 
3 1 1.87207 1.1379 0.0131753 -8.26801e-05 0.000254463 1.63832e-20 
4 2 -3.4302 -3.31972 0.0404429 -1.0335e-05 3.18079e-05 2.0479e-21 
5 2 1.73809 -1.80078 -0.0082967 -1.0335e-05 3.18079e-05 2.0479e-21 
6 2 4.33794 -0.527665 0.0255126 -1.0335e-05 3.18079e-05 2.0479e-21 
7 2 2.98762 3.86801 -0.00187919 -1.0335e-05 3.18079e-05 2.0479e-21 
ITEM: TIMESTEP
3663
ITEM: NUMBER OF ATOMS
7
ITEM: BOX BOUNDS pp pp ff
-1.0000000000000000e+01 1.0000000000000000e+01
-1.0000000000000000e+01 1.0000000000000000e+01
-2.0499999999999998e+00 2.0499999999999998e+00
ITEM: ATOMS id type x y z mux muy muz 
1 1 -1.22391 -1.28085 -0.0181986 -0.000183156 -0.000195042 1.63832e-20 
2 1 -1.83079 2.71576 0.0208039 -0.000183156 -0.000195042 1.63832e-20 
3 1 1.7909 1.21716 0.0354222 -0.000183156 -0.000195042 1.63832e-20 
4 2 -3.34656 -3.33818 0.0167052 -2.28946e-05 -2.43802e-05 2.0479e-21 
5 2 1.69777 -1.78482 -0.0096712 -2.28946e-05 -2.43802e-05 2.0479e-21 
6 2 4.20805 -0.533237 0.00431222 -2.28946e-05 -2.43802e-05 2.0479e-21 
7 2 2.84081 4.04472 -0.0145535 -2.28946e-05 -2.43802e-05 2.0479e-21 
ITEM: TIMESTEP
3996
ITEM: NUMBER OF ATOMS
7
ITEM: BOX BOUNDS pp pp ff
-1.0000000000000000e+01 1.0000000000000000e+01
-1.0000000000000000e+01 1.0000000000000000e+01
-2.0499999999999998e+00 2.0499999999999998e+00
ITEM: ATOMS id type x y z mux muy muz 
1 1 -1.18021 -1.10995 0.0504214 0.000259153 -6.65391e-05 1.63832e-20 
2 1 -1.76353 2.76267 0.00341239 0.000259153 -6.65391e-05 1.63832e-20 
3 1 1.88847 1.28575 0.0482622 0.000259153 -6.65391e-05 1.63832e-20 
4 2 -3.23627 -3.42087 -0.0302012 3.23941e-05 -8.31739e-06 2.0479e-21 
5 2 1.75324 -1.70549 0.0414509 3.23941e-05 -8.31739e-06 2.0479e-21 
6 2 4.06287 -0.710457 0.00521356 3.23941e-05 -8.31739e-06 2.0479e-21 
7 2 2.57703 4.20562 -0.01412 3.23941e-05 -8.31739e-06 2.0479e-21 
ITEM: TIMESTEP
4329
ITEM: NUMBER OF ATOMS
7
ITEM: BOX BOUNDS pp pp ff
-1.0000000000000000e+01 1.0000000000000000e+01
-1.0000000000000000e+01 1.0000000000000000e+01
-2.0499999999999998e+00 2.0499999999999998e+00
ITEM: ATOMS id type x y z mux muy muz 
1 1 -1.18872 -1.08235 0.0345664 -6.65391e-05 0.000259153 1.63832e-20 
2 1 -1.79394 2.72723 0.0562369 -6.65391e-05 0.000259153 1.63832e-20 
3 1 1.94635 1.34619 0.0243321 -6.65391e-05 0.000259153 1.63832e-20 
4 2 -3.04899 -3.38851 0.00526307 -8.31739e-06 3.23941e-05 2.0479e-21 
5 2 1.88145 -1.61529 0.00271325 -8.31739e-06 3.23941e-05 2.0479e-21 
6 2 3.8576 -0.920998 -0.00988793 -8.31739e-06 3.23941e-05 2.0479e-21 
7 2 2.44234 4.24829 0.00981568 -8.31739e-06 3.23941e-05 2.0479e-21 
ITEM: TIMESTEP
4662
ITEM: NUMBER OF ATOMS
7
ITEM: BOX BOUNDS pp pp ff
-1.0000000000000000e+01 1.0000000000000000e+01
-1.0000000000000000e+01 1.0000000000000000e+01
-2.0499999999999998e+00 2.0499999999999998e+00
ITEM: ATOMS id type x y z mux muy muz 
1 1 -1.07101 -1.18962 -0.0105019 -0.000195042 -0.000183156 1.63832e-20 
2 1 -1.71785 2.80353 0.00826996 -0.000195042 -0.000183156 1.63832e-20 
3 1 1.90716 1.3661 -0.0203169 -0.000195042 -0.000183156 1.63832e-20 
4 2 -2.97135 -3.43516 0.00113318 -2.43802e-05 -2.28946e-05 2.0479e-21 
5 2 1.87504 -1.61773 0.00179908 -2.43802e-05 -2.28946e-05 2.0479e-21 
6 2 3.78527 -0.975588 -0.0371022 -2.43802e-05 -2.28946e-05 2.0479e-21 
7 2 2.1062 4.3603 -0.00624859 -2.43802e-05 -2.28946e-05 2.0479e-21 
ITEM: TIMESTEP
4995
ITEM: NUMBER OF ATOMS
7
ITEM: BOX BOUNDS pp pp ff
-1.0000000000000000e+01 1.0000000000000000e+01
-1.0000000000000000e+01 1.0000000000000000e+01
-2.0499999999999998e+00 2.0499999999999998e+00
ITEM: ATOMS id type x y z mux muy muz 
1 1 -1.1162 -1.00571 -0.0209175 0.000254463 -8.26801e-05 1.63832e-20 
2 1 -1.66384 2.86128 -0.0404215 0.000254463 -8.26801e-05 1.63832e-20 
3 1 1.97052 1.3612 0.00110828 0.000254463 -8.26801e-05 1.63832e-20 
4 2 -2.6804 -3.5917 -0.0456532 3.18079e-05 -1.0335e-05 2.0479e-21 
5 2 1.81421 -1.63144 0.0173528 3.18079e-05 -1.0335e-05 2.0479e-21 
6 2 3.74958 -1.01305 -0.0188037 3.18079e-05 -1.0335e-05 2.0479e-21 
7 2 1.82899 4.34314 0.00814444 3.18079e-05 -1.0335e-05 2.0479e-21 
ITEM: TIMESTEP
5328
ITEM: NUMBER OF ATOMS
7
ITEM: BOX BOUNDS pp pp ff
-1.0000000000000000e+01 1.0000000000000000e+01
-1.0000000000000000e+01 1.0000000000000000e+01
-2.0499999999999998e+00 2.0499999999999998e+00
ITEM: ATOMS id type x y z mux muy muz 
1 1 -1.09563 -0.90946 0.0233503 -5.01355e-05 0.000262819 1.63832e-20 
2 1 -1.4769 2.94717 0.0372708 -5.01355e-05 0.000262819 1.63832e-20 
3 1 2.13554 1.35522 0.0348089 -5.01355e-05 0.000262819 1.63832e-20 
4 2 -2.59116 -3.45806 0.0268447 -6.26693e-06 3.28524e-05 2.0479e-21 
5 2 1.8848 -1.60414 -0.000155992 -6.26693e-06 3.28524e-05 2.0479e-21 
6 2 3.82595 -1.10472 0.0298106 -6.26693e-06 3.28524e-05 2.0479e-21 
7 2 1.2488 4.27912 0.0525504 -6.26693e-06 3.28524e-05 2.0479e-21 
ITEM: TIMESTEP
5661
ITEM: NUMBER OF ATOMS
7
ITEM: BOX BOUNDS pp pp ff
-1.0000000000000000e+01 1.0000000000000000e+01
-1.0000000000000000e+01 1.0000000000000000e+01
-2.0499999999999998e+00 2.0499999999999998e+00
ITEM: ATOMS id type x y z mux muy muz 
1 1 -1.08489 -0.96293 0.0496824 -0.000206157 -0.000170548 1.63832e-20 
2 1 -1.50574 3.03288 0.0507232 -0.000206157 -0.000170548 1.63832e-20 
3 1 2.04358 1.35599 0.040036 -0.000206157 -0.000170548 1.63832e-20 
4 2 -2.58513 -3.5911 0.00511504 -2.57697e-05 -2.13185e-05 2.0479e-21 
5 2 1.81214 -1.61333 -0.0095472 -2.57697e-05 -2.13185e-05 2.0479e-21 
6 2 3.7395 -1.10547 0.019588 -2.57697e-05 -2.13185e-05 2.0479e-21 
7 2 1.17825 4.25946 0.000442271 -2.57697e-05 -2.13185e-05 2.0479e-21 
ITEM: TIMESTEP
5994
ITEM: NUMBER OF ATOMS
7
ITEM: BOX BOUNDS pp pp ff
-1.0000000000000000e+01 1.0000000000000000e+01
-1.0000000000000000e+01 1.0000000000000000e+01
-2.0499999999999998e+00 2.0499999999999998e+00
ITEM: ATOMS id type x y z mux muy muz 
1 1 -1.19366 -0.894301 -0.0120393 0.00024877 -9.84949e-05 1.63832e-20 
2 1 -1.52627 2.98892 0.0158234 0.00024877 -9.84949e-05 1.63832e-20 
3 1 2.02146 1.34952 0.00623275 0.00024877 -9.84949e-05 1.63832e-20 
4 2 -2.38245 -3.66486 -0.013618 3.10962e-05 -1.23119e-05 2.0479e-21 
5 2 1.70947 -1.62256 0.0121462 3.10962e-05 -1.23119e-05 2.0479e-21 
6 2 3.67753 -1.10778 -0.0284189 3.10962e-05 -1.23119e-05 2.0479e-21 
7 2 1.23367 4.19927 -0.00078659 3.10962e-05 -1.23119e-05 2.0479e-21 
ITEM: TIMESTEP
6327
ITEM: NUMBER OF ATOMS
7
ITEM: BOX BOUNDS pp pp ff
-1.0000000000000000e+01 1.0000000000000000e+01
-1.0000000000000000e+01 1.0000000000000000e+01
-2.0499999999999998e+00 2.0499999999999998e+00
ITEM: ATOMS id type x y z mux muy muz 
1 1 -1.20134 -0.933885 -0.00556398 -3.3534e-05 0.000265449 1.63832e-20 
2 1 -1.55331 2.88405 -0.00939946 -3.3534e-05 0.000265449 1.63832e-20 
3 1 2.0599 1.3113 -0.0313234 -3.3534e-05 0.000265449 1.63832e-20 
4 2 -2.4488 -3.61055 -0.0119308 -4.19175e-06 3.31811e-05 2.0479e-21 
5 2 1.78305 -1.63618 -0.00263332 -4.19175e-06 3.31811e-05 2.0479e-21 
6 2 3.71287 -1.16583 -0.0475532 -4.19175e-06 3.31811e-05 2.0479e-21 
7 2 1.1739 4.21503 -0.0348045 -4.19175e-06 3.31811e-05 2.0479e-21 
ITEM: TIMESTEP
6660
ITEM: NUMBER OF ATOMS
7
ITEM: BOX BOUNDS pp pp ff
-1.0000000000000000e+01 1.0000000000000000e+01
-1.0000000000000000e+01 1.0000000000000000e+01
-2.0499999999999998e+00 2.0499999999999998e+00
ITEM: ATOMS id type x y z mux muy muz 
1 1 -1.17213 -1.00453 0.0284229 -0.000216459 -0.000157267 1.63832e-20 
2 1 -1.5684 2.9954 -0.0324628 -0.000216459 -0.000157267 1.63832e-20 
3 1 1.9803 1.3179 -0.0314148 -0.000216459 -0.000157267 1.63832e-20 
4 2 -2.30254 -3.75936 -0.0328272 -2.70574e-05 -1.96584e-05 2.0479e-21 
5 2 1.69332 -1.64554 -0.00661268 -2.70574e-05 -1.96584e-05 2.0479e-21 
6 2 3.61185 -1.19654 -0.0126348 -2.70574e-05 -1.96584e-05 2.0479e-21 
7 2 1.10949 4.21138 -0.032013 -2.70574e-05 -1.96584e-05 2.0479e-21 
ITEM: TIMESTEP
6993
ITEM: NUMBER OF ATOMS
7
ITEM: BOX BOUNDS pp pp ff
-1.0000000000000000e+01 1.0000000000000000e+01
-1.0000000000000000e+01 1.0000000000000000e+01
-2.0499999999999998e+00 2.0499999999999998e+00
ITEM: ATOMS id type x y z mux muy muz 
1 1 -1.29962 -0.908438 -0.0523601 0.000242094 -0.000113921 1.63832e-20 
2 1 -1.6242 2.94939 -0.0448841 0.000242094 -0.000113921 1.63832e-20 
3 1 1.94749 1.31599 -0.0129878 0.000242094 -0.000113921 1.63832e-20 
4 2 -2.12703 -3.7988 -0.00867764 3.02618e-05 -1.42401e-05 2.0479e-21 
5 2 1.65606 -1.65064 0.0260512 3.02618e-05 -1.42401e-05 2.0479e-21 
6 2 3.62077 -1.14069 -0.0295165 3.02618e-05 -1.42401e-05 2.0479e-21 
7 2 1.17888 4.16286 -0.0176996 3.02618e-05 -1.42401e-05 2.0479e-21 
ITEM: TIMESTEP
7326
ITEM: NUMBER OF ATOMS
7
ITEM: BOX BOUNDS pp pp ff
-1.0000000000000000e+01 1.0000000000000000e+01
-1.0000000000000000e+01 1.0000000000000000e+01
-2.0499999999999998e+00 2.0499999999999998e+00
ITEM: ATOMS id type x y z mux muy muz 
1 1 -1.27949 -0.948786 0.00672383 -1.68001e-05 0.000267031 1.63832e-20 
2 1 -1.57515 2.92189 -0.0120184 -1.68001e-05 0.000267031 1.63832e-20 
3 1 2.00061 1.24967 -0.0168358 -1.68001e-05 0.000267031 1.63832e-20 
4 2 -2.0351 -3.80523 -0.0316241 -2.10002e-06 3.33788e-05 2.0479e-21 
5 2 1.65506 -1.69693 0.0451961 -2.10002e-06 3.33788e-05 2.0479e-21 
6 2 3.60181 -1.24404 0.0155616 -2.10002e-06 3.33788e-05 2.0479e-21 
7 2 1.1601 4.18242 0.00657858 -2.10002e-06 3.33788e-05 2.0479e-21 
ITEM: TIMESTEP
7659
ITEM: NUMBER OF ATOMS
7
ITEM: BOX BOUNDS pp pp ff
-1.0000000000000000e+01 1.0000000000000000e+01
-1.0000000000000000e+01 1.0000000000000000e+01
-2.0499999999999998e+00 2.0499999999999998e+00
ITEM: ATOMS id type x y z mux muy muz 
1 1 -1.22931 -0.965084 0.00976487 -0.000225907 -0.000143365 1.63832e-20 
2 1 -1.59061 3.01065 -0.0100407 -0.000225907 -0.000143365 1.63832e-20 
3 1 1.92967 1.28588 0.0186118 -0.000225907 -0.000143365 1.63832e-20 
4 2 -1.87749 -3.90302 -0.0321266 -2.82384e-05 -1.79206e-05 2.0479e-21 
5 2 1.63029 -1.6836 0.0165268 -2.82384e-05 -1.79206e-05 2.0479e-21 
6 2 3.56274 -1.24335 0.00380243 -2.82384e-05 -1.79206e-05 2.0479e-21 
7 2 1.10411 4.17357 -0.0436467 -2.82384e-05 -1.79206e-05 2.0479e-21 
ITEM: TIMESTEP
7992
ITEM: NUMBER OF ATOMS
7
ITEM: BOX BOUNDS pp pp ff
-1.0000000000000000e+01 1.0000000000000000e+01
-1.0000000000000000e+01 1.0000000000000000e+01
-2.0499999999999998e+00 2.0499999999999998e+00
ITEM: ATOMS id type x y z mux muy muz 
1 1 -1.32547 -0.965656 0.0200078 0.000234463 -0.000128897 1.63832e-20 
2 1 -1.67275 2.91812 0.0512709 0.000234463 -0.000128897 1.63832e-20 
3 1 1.9166 1.29337 -0.00444451 0.000234463 -0.000128897 1.63832e-20 
4 2 -1.80808 -3.91431 0.0399582 2.93079e-05 -1.61122e-05 2.0479e-21 
5 2 1.60061 -1.67401 0.0105538 2.93079e-05 -1.61122e-05 2.0479e-21 
6 2 3.55764 -1.18035 0.0576698 2.93079e-05 -1.61122e-05 2.0479e-21 
7 2 1.16405 4.14831 0.0573656 2.93079e-05 -1.61122e-05 2.0479e-21 
ITEM: TIMESTEP
8325
ITEM: NUMBER OF ATOMS
7
ITEM: BOX BOUNDS pp pp ff
-1.0000000000000000e+01 1.0000000000000000e+01
-1.0000000000000000e+01 1.0000000000000000e+01
-2.0499999999999998e+00 2.0499999999999998e+00
ITEM: ATOMS id type x y z mux muy muz 
1 1 -1.31066 -0.951517 0.0169566 3.92005e-17 0.000267559 1.63832e-20 
2 1 -1.69431 2.9321 -0.03648 3.92005e-17 0.000267559 1.63832e-20 
3 1 1.90766 1.30741 0.0272961 3.92005e-17 0.000267559 1.63832e-20 
4 2 -1.82031 -3.87498 -0.000762966 4.90006e-18 3.34448e-05 2.0479e-21 
5 2 1.62701 -1.64031 -0.0312989 4.90006e-18 3.34448e-05 2.0479e-21 
6 2 3.55891 -1.16588 0.00113499 4.90006e-18 3.34448e-05 2.0479e-21 
7 2 1.01866 4.2523 -0.0210416 4.90006e-18 3.34448e-05 2.0479e-21 
ITEM: TIMESTEP
8658
ITEM: NUMBER OF ATOMS
7
ITEM: BOX BOUNDS pp pp ff
-1.0000000000000000e+01 1.0000000000000000e+01
-1.0000000000000000e+01 1.0000000000000000e+01
-2.0499999999999998e+00 2.0499999999999998e+00
ITEM: ATOMS id type x y z mux muy muz 
1 1 -1.2574 -1.00533 0.0275544 -0.000234463 -0.000128897 1.63832e-20 
2 1 -1.75434 2.95851 -2.0525e-06 -0.000234463 -0.000128897 1.63832e-20 
3 1 1.83268 1.37846 0.0255107 -0.000234463 -0.000128897 1.63832e-20 
4 2 -1.68149 -4.01385 0.0531072 -2.93079e-05 -1.61122e-05 2.0479e-21 
5 2 1.64453 -1.60899 -0.0062461 -2.93079e-05 -1.61122e-05 2.0479e-21 
6 2 3.57224 -1.04282 0.00675398 -2.93079e-05 -1.61122e-05 2.0479e-21 
7 2 0.892622 4.22867 0.0160424 -2.93079e-05 -1.61122e-05 2.0479e-21 
ITEM: TIMESTEP
8991
ITEM: NUMBER OF ATOMS
7
ITEM: BOX BOUNDS pp pp ff
-1.0000000000000000e+01 1.0000000000000000e+01
-1.0000000000000000e+01 1.0000000000000000e+01
-2.0499999999999998e+00 2.0499999999999998e+00
ITEM: ATOMS id type x y z mux muy muz 
1 1 -1.31129 -0.969632 0.0180978 0.000225907 -0.000143365 1.63832e-20 
2 1 -1.77702 2.87275 -0.00437116 0.000225907 -0.000143365 1.63832e-20 
3 1 1.8572 1.37957 0.00832583 0.000225907 -0.000143365 1.63832e-20 
4 2 -1.60686 -3.9378 0.0385166 2.82384e-05 -1.79206e-05 2.0479e-21 
5 2 1.67293 -1.60129 -0.000804937 2.82384e-05 -1.79206e-05 2.0479e-21 
6 2 3.6003 -1.03276 -0.0115624 2.82384e-05 -1.79206e-05 2.0479e-21 
7 2 0.982708 4.19751 -0.0528218 2.82384e-05 -1.79206e-05 2.0479e-21 
ITEM: TIMESTEP
9324
ITEM: NUMBER OF ATOMS
7
ITEM: BOX BOUNDS pp pp ff
-1.0000000000000000e+01 1.0000000000000000e+01
-1.0000000000000000e+01 1.0000000000000000e+01
-2.0499999999999998e+00 2.0499999999999998e+00
ITEM: ATOMS id type x y z mux muy muz 
1 1 -1.2879 -0.983782 0.0253703 1.68001e-05 0.000267031 1.63832e-20 
2 1 -1.78172 2.90162 0.0248755 1.68001e-05 0.000267031 1.63832e-20 
3 1 1.8505 1.38899 0.0278277 1.68001e-05 0.000267031 1.63832e-20 
4 2 -1.40353 -3.93826 0.0104071 2.10002e-06 3.33788e-05 2.0479e-21 
5 2 1.66832 -1.57853 0.0268848 2.10002e-06 3.33788e-05 2.0479e-21 
6 2 3.5934 -1.04229 0.0096657 2.10002e-06 3.33788e-05 2.0479e-21 
7 2 0.878779 4.31572 -0.0241969 2.10002e-06 3.33788e-05 2.0479e-21 
ITEM: TIMESTEP
9657
ITEM: NUMBER OF ATOMS
7
ITEM: BOX BOUNDS pp pp ff
-1.0000000000000000e+01 1.0000000000000000e+01
-1.0000000000000000e+01 1.0000000000000000e+01
-2.0499999999999998e+00 2.0499999999999998e+00
ITEM: ATOMS id type x y z mux muy muz 
1 1 -1.28374 -1.0506 0.0104417 -0.000242094 -0.000113921 1.63832e-20 
2 1 -1.88102 2.88256 0.020435 -0.000242094 -0.000113921 1.63832e-20 
3 1 1.74021 1.407 0.0258995 -0.000242094 -0.000113921 1.63832e-20 
4 2 -1.17978 -4.06605 -0.0453178 -3.02618e-05 -1.42401e-05 2.0479e-21 
5 2 1.61636 -1.57897 -0.00457333 -3.02618e-05 -1.42401e-05 2.0479e-21 
6 2 3.56205 -0.969089 -0.0446092 -3.02618e-05 -1.42401e-05 2.0479e-21 
7 2 0.743221 4.22807 0.00496299 -3.02618e-05 -1.42401e-05 2.0479e-21 
ITEM: TIMESTEP
9990
ITEM: NUMBER OF ATOMS
7
ITEM: BOX BOUNDS pp pp ff
-1.0000000000000000e+01 1.0000000000000000e+01
-1.0000000000000000e+01 1.0000000000000000e+01
-2.0499999999999998e+00 2.0499999999999998e+00
ITEM: ATOMS id type x y z mux muy muz 
1 1 -1.38849 -1.07336 0.0208087 0.000216459 -0.000157267 1.63832e-20 
2 1 -1.90776 2.77007 -0.00827132 0.000216459 -0.000157267 1.63832e-20 
3 1 1.74925 1.34489 -0.0290989 0.000216459 -0.000157267 1.63832e-20 
4 2 -1.13658 -4.02293 0.00342449 2.70574e-05 -1.96584e-05 2.0479e-21 
5 2 1.6035 -1.65757 -0.0308149 2.70574e-05 -1.96584e-05 2.0479e-21 
6 2 3.50992 -1.05851 -0.044479 2.70574e-05 -1.96584e-05 2.0479e-21 
7 2 0.793957 4.15481 -0.00827782 2.70574e-05 -1.96584e-05 2.0479e-21 
ITEM: TIMESTEP
10323
ITEM: NUMBER OF ATOMS
7
ITEM: BOX BOUNDS pp pp ff
-1.0000000000000000e+01 1.0000000000000000e+01
-1.0000000000000000e+01 1.0000000000000000e+01
-2.0499999999999998e+00 2.0499999999999998e+00
ITEM: ATOMS id type x y z mux muy muz 
1 1 -1.30154 -1.16171 -0.00118962 3.3534e-05 0.000265449 1.63832e-20 
2 1 -1.90135 2.73085 0.00249817 3.3534e-05 0.000265449 1.63832e-20 
3 1 1.7518 1.28662 -0.0378135 3.3534e-05 0.000265449 1.63832e-20 
4 2 -0.837585 -4.10697 0.051634 4.19175e-06 3.31811e-05 2.0479e-21 
5 2 1.64652 -1.67717 0.000918133 4.19175e-06 3.31811e-05 2.0479e-21 
6 2 3.54853 -1.10931 -0.00323265 4.19175e-06 3.31811e-05 2.0479e-21 
7 2 0.70818 4.21049 -0.0133534 4.19175e-06 3.31811e-05 2.0479e-21 
ITEM: TIMESTEP
10656
ITEM: NUMBER OF ATOMS
7
ITEM: BOX BOUNDS pp pp ff
-1.0000000000000000e+01 1.0000000000000000e+01
-1.0000000000000000e+01 1.0000000000000000e+01
-2.0499999999999998e+00 2.0499999999999998e+00
ITEM: ATOMS id type x y z mux muy muz 
1 1 -1.34458 -1.22846 -0.00392866 -0.00024877 -9.84949e-05 1.63832e-20 
2 1 -2.00181 2.69094 -0.00135715 -0.00024877 -9.84949e-05 1.63832e-20 
3 1 1.6589 1.25709 -0.0264065 -0.00024877 -9.84949e-05 1.63832e-20 
4 2 -0.715716 -4.17979 -0.00244243 -3.10962e-05 -1.23119e-05 2.0479e-21 
5 2 1.56197 -1.70601 -0.0143711 -3.10962e-05 -1.23119e-05 2.0479e-21 
6 2 3.53788 -1.05873 -0.0181968 -3.10962e-05 -1.23119e-05 2.0479e-21 
7 2 0.598922 4.06796 -0.00979869 -3.10962e-05 -1.23119e-05 2.0479e-21 
ITEM: TIMESTEP
10989
ITEM: NUMBER OF ATOMS
7
ITEM: BOX BOUNDS pp pp ff
-1.0000000000000000e+01 1.0000000000000000e+01
-1.0000000000000000e+01 1.0000000000000000e+01
-2.0499999999999998e+00 2.0499999999999998e+00
ITEM: ATOMS id type x y z mux muy muz 
1 1 -1.40367 -1.25519 -0.0443679 0.000206157 -0.000170548 1.63832e-20 
2 1 -2.1055 2.54787 -0.0291052 0.000206157 -0.000170548 1.63832e-20 
3 1 1.62491 1.30816 -0.0328714 0.000206157 -0.000170548 1.63832e-20 
4 2 -0.583945 -4.08991 0.0453774 2.57697e-05 -2.13185e-05 2.0479e-21 
5 2 1.56184 -1.69242 -0.0038679 2.57697e-05 -2.13185e-05 2.0479e-21 
6 2 3.45976 -1.03888 -0.049198 2.57697e-05 -2.13185e-05 2.0479e-21 
7 2 0.559118 4.07622 0.0119078 2.57697e-05 -2.13185e-05 2.0479e-21 
ITEM: TIMESTEP
11322
ITEM: NUMBER OF ATOMS
7
ITEM: BOX BOUNDS pp pp ff
-1.0000000000000000e+01 1.0000000000000000e+01
-1.0000000000000000e+01 1.0000000000000000e+01
-2.0499999999999998e+00 2.0499999999999998e+00
ITEM: ATOMS id type x y z mux muy muz 
1 1 -1.41157 -1.30892 -0.0231684 5.01355e-05 0.000262819 1.63832e-20 
2 1 -2.1933 2.51612 0.0333749 5.01355e-05 0.000262819 1.63832e-20 
3 1 1.53773 1.24732 -0.00312912 5.01355e-05 0.000262819 1.63832e-20 
4 2 -0.234635 -4.11345 -0.0278568 6.26693e-06 3.28524e-05 2.0479e-21 
5 2 1.54604 -1.7305 -0.0228531 6.26693e-06 3.28524e-05 2.0479e-21 
6 2 3.42567 -1.07002 -0.0455394 6.26693e-06 3.28524e-05 2.0479e-21 
7 2 0.364362 4.06389 0.000807893 6.26693e-06 3.28524e-05 2.0479e-21 
ITEM: TIMESTEP
11655
ITEM: NUMBER OF ATOMS
7
ITEM: BOX BOUNDS pp pp ff
-1.0000000000000000e+01 1.0000000000000000e+01
-1.0000000000000000e+01 1.0000000000000000e+01
-2.0499999999999998e+00 2.0499999999999998e+00
ITEM: ATOMS id type x y z mux muy muz 
1 1 -1.45347 -1.39923 -0.00198743 -0.000254463 -8.26801e-05 1.63832e-20 
2 1 -2.18486 2.50588 0.020221 -0.000254463 -8.26801e-05 1.63832e-20 
3 1 1.49171 1.19937 0.0117505 -0.000254463 -8.26801e-05 1.63832e-20 
4 2 -0.0513345 -4.02375 0.021187 -3.18079e-05 -1.0335e-05 2.0479e-21 
5 2 1.4701 -1.79195 -0.0363297 -3.18079e-05 -1.0335e-05 2.0479e-21 
6 2 3.38309 -1.12036 0.00379325 -3.18079e-05 -1.0335e-05 2.0479e-21 
7 2 0.361728 3.96963 0.0137374 -3.18079e-05 -1.0335e-05 2.0479e-21 
ITEM: TIMESTEP
11988
ITEM: NUMBER OF ATOMS
7
ITEM: BOX BOUNDS pp pp ff
-1.0000000000000000e+01 1.0000000000000000e+01
-1.0000000000000000e+01 1.0000000000000000e+01
-2.0499999999999998e+00 2.0499999999999998e+00
ITEM: ATOMS id type x y z mux muy muz 
1 1 -1.5166 -1.39287 0.0129862 0.000195042 -0.000183156 1.63832e-20 
2 1 -2.25363 2.4079 -0.00761865 0.000195042 -0.000183156 1.63832e-20 
3 1 1.49724 1.1593 -0.0112199 0.000195042 -0.000183156 1.63832e-20 
4 2 0.344929 -3.68705 0.00871435 2.43802e-05 -2.28946e-05 2.0479e-21 
5 2 1.42467 -1.84834 0.0173754 2.43802e-05 -2.28946e-05 2.0479e-21 
6 2 3.30382 -1.18654 -0.02647 2.43802e-05 -2.28946e-05 2.0479e-21 
7 2 0.400276 3.91123 0.00589115 2.43802e-05 -2.28946e-05 2.0479e-21 
ITEM: TIMESTEP
12321
ITEM: NUMBER OF ATOMS
7
ITEM: BOX BOUNDS pp pp ff
-1.0000000000000000e+01 1.0000000000000000e+01
-1.0000000000000000e+01 1.0000000000000000e+01
-2.0499999999999998e+00 2.0499999999999998e+00
ITEM: ATOMS id type x y z mux muy muz 
1 1 -1.52021 -1.39846 0.0219113 6.65391e-05 0.000259153 1.63832e-20 
2 1 -2.26778 2.45689 -0.0249609 6.65391e-05 0.000259153 1.63832e-20 
3 1 1.44266 1.13104 0.00846206 6.65391e-05 0.000259153 1.63832e-20 
4 2 0.562778 -3.61124 0.00412097 8.31739e-06 3.23941e-05 2.0479e-21 
5 2 1.45538 -1.83978 -0.0444269 8.31739e-06 3.23941e-05 2.0479e-21 
6 2 3.33199 -1.18691 -0.0340584 8.31739e-06 3.23941e-05 2.0479e-21 
7 2 0.312871 3.95842 0.043572 8.31739e-06 3.23941e-05 2.0479e-21 
ITEM: TIMESTEP
12654
ITEM: NUMBER OF ATOMS
7
ITEM: BOX BOUNDS pp pp ff
-1.0000000000000000e+01 1.0000000000000000e+01
-1.0000000000000000e+01 1.0000000000000000e+01
-2.0499999999999998e+00 2.0499999999999998e+00
ITEM: ATOMS id type x y z mux muy muz 
1 1 -1.4983 -1.48604 0.0031305 -0.000259153 -6.65391e-05 1.63832e-20 
2 1 -2.18995 2.42055 -0.0243935 -0.000259153 -6.65391e-05 1.63832e-20 
3 1 1.46868 1.11407 -0.0286384 -0.000259153 -6.65391e-05 1.63832e-20 
4 2 0.536596 -3.64573 0.0168231 -3.23941e-05 -8.31739e-06 2.0479e-21 
5 2 1.44889 -1.86964 0.00378128 -3.23941e-05 -8.31739e-06 2.0479e-21 
6 2 3.33294 -1.20854 0.00617357 -3.23941e-05 -8.31739e-06 2.0479e-21 
7 2 0.383004 3.88371 -0.0206151 -3.23941e-05 -8.31739e-06 2.0479e-21 
ITEM: TIMESTEP
12987
ITEM: NUMBER OF ATOMS
7
ITEM: BOX BOUNDS pp pp ff
-1.0000000000000000e+01 1.0000000000000000e+01
-1.0000000000000000e+01 1.0000000000000000e+01
-2.0499999999999998e+00 2.0499999999999998e+00
ITEM: ATOMS id type x y z mux muy muz 
1 1 -1.47851 -1.41455 -0.0261074 0.000183156 -0.000195042 1.63832e-20 
2 1 -2.22218 2.38131 -0.0455899 0.000183156 -0.000195042 1.63832e-20 
3 1 1.53635 1.1163 -0.0195033 0.000183156 -0.000195042 1.63832e-20 
4 2 0.525205 -3.64946 0.00623223 2.28946e-05 -2.43802e-05 2.0479e-21 
5 2 1.46785 -1.88864 -0.0261154 2.28946e-05 -2.43802e-05 2.0479e-21 
6 2 3.35449 -1.22417 -0.0351111 2.28946e-05 -2.43802e-05 2.0479e-21 
7 2 0.409948 3.91099 -0.0162656 2.28946e-05 -2.43802e-05 2.0479e-21 
ITEM: TIMESTEP
13320
ITEM: NUMBER OF ATOMS
7
ITEM: BOX BOUNDS pp pp ff
-1.0000000000000000e+01 1.0000000000000000e+01
-1.0000000000000000e+01 1.0000000000000000e+01
-2.0499999999999998e+00 2.0499999999999998e+00
ITEM: ATOMS id type x y z mux muy muz 
1 1 -1.4845 -1.43422 -0.00915862 8.26801e-05 0.000254463 1.63832e-20 
2 1 -2.228 2.4201 0.0211893 8.26801e-05 0.000254463 1.63832e-20 
3 1 1.48638 1.06681 0.00137707 8.26801e-05 0.000254463 1.63832e-20 
4 2 0.608128 -3.68086 -0.0441081 1.0335e-05 3.18079e-05 2.0479e-21 
5 2 1.48687 -1.90059 -0.0366735 1.0335e-05 3.18079e-05 2.0479e-21 
6 2 3.36708 -1.25669 -0.0470111 1.0335e-05 3.18079e-05 2.0479e-21 
7 2 0.329223 3.94189 -0.0245046 1.0335e-05 3.18079e-05 2.0479e-21 
ITEM: TIMESTEP
13653
ITEM: NUMBER OF ATOMS
7
ITEM: BOX BOUNDS pp pp ff