ITEM: TIMESTEP
0
ITEM: NUMBER OF ATOMS
6
ITEM: BOX BOUNDS pp pp ff
-1.0000000000000000e+01 1.0000000000000000e+01
-1.0000000000000000e+01 1.0000000000000000e+01
-2.0499999999999998e+00 2.0499999999999998e+00
ITEM: ATOMS id type x y z mux muy muz 
1 1 -2.5 -5 0 0 0 0 
2 1 0 5 0 0 0 0 
3 1 2.5 -5 0 0 0 0 
4 2 -1 -5 0 2 0 0 
5 2 0 5 0 0 2 0 
6 3 1 -5 0 0 0 0 
ITEM: TIMESTEP
333
ITEM: NUMBER OF ATOMS
6
ITEM: BOX BOUNDS pp pp ff
-1.0000000000000000e+01 1.0000000000000000e+01
-1.0000000000000000e+01 1.0000000000000000e+01
-2.0499999999999998e+00 2.0499999999999998e+00
ITEM: ATOMS id type x y z mux muy muz 
1 1 -2.43285 -4.95259 0.044376 -0 0 0 
2 1 0.0578847 4.99286 0.00451542 -0 0 0 
3 1 2.39153 -5.02172 0.00413352 -0 0 0 
4 2 -1 -5 0 2 0 0 
5 2 0 5 0 0 2 0 
6 3 1 -5 0 0 0 0 
ITEM: TIMESTEP
666
ITEM: NUMBER OF ATOMS
6
ITEM: BOX BOUNDS pp pp ff
-1.0000000000000000e+01 1.0000000000000000e+01
-1.0000000000000000e+01 1.0000000000000000e+01
-2.0499999999999998e+00 2.0499999999999998e+00
ITEM: ATOMS id type x y z mux muy muz 
1 1 -2.3374 -5.03525 -0.00768446 -0 -0 0 
2 1 0.0337994 5.11662 0.0328532 -0 -0 0 
3 1 2.32633 -5.00028 -0.0201847 -0 -0 0 
4 2 -1 -5 0 2 0 0 
5 2 0 5 0 0 2 0 
6 3 1 -5 0 0 0 0 
ITEM: TIMESTEP
999
ITEM: NUMBER OF ATOMS
6
ITEM: BOX BOUNDS pp pp ff
-1.0000000000000000e+01 1.0000000000000000e+01
-1.0000000000000000e+01 1.0000000000000000e+01
-2.0499999999999998e+00 2.0499999999999998e+00
ITEM: ATOMS id type x y z mux muy muz 
1 1 -2.28132 -4.98537 0.0039409 0 -0 0 
2 1 -0.0173532 5.12674 -0.00346705 0 -0 0 
3 1 2.37173 -5.08539 -0.0105149 0 -0 0 
4 2 -1 -5 0 2 0 0 
5 2 0 5 0 0 2 0 
6 3 1 -5 0 0 0 0 
ITEM: TIMESTEP
1332
ITEM: NUMBER OF ATOMS
6
ITEM: BOX BOUNDS pp pp ff
-1.0000000000000000e+01 1.0000000000000000e+01
-1.0000000000000000e+01 1.0000000000000000e+01
-2.0499999999999998e+00 2.0499999999999998e+00
ITEM: ATOMS id type x y z mux muy muz 
1 1 -2.18575 -4.96013 -0.0513821 -0 0 0 
2 1 -0.0190728 5.0571 0.0270002 -0 0 0 
3 1 2.28049 -5.04782 0.0467665 -0 0 0 
4 2 -1 -5 0 2 0 0 
5 2 0 5 0 0 2 0 
6 3 1 -5 0 0 0 0 
ITEM: TIMESTEP
1665
ITEM: NUMBER OF ATOMS
6
ITEM: BOX BOUNDS pp pp ff
-1.0000000000000000e+01 1.0000000000000000e+01
-1.0000000000000000e+01 1.0000000000000000e+01
-2.0499999999999998e+00 2.0499999999999998e+00
ITEM: ATOMS id type x y z mux muy muz 
1 1 -2.16623 -5.06829 0.03402 -0 -0 0 
2 1 0.0561167 5.03859 0.0348244 -0 -0 0 
3 1 2.24428 -5.03271 0.025311 -0 -0 0 
4 2 -1 -5 0 2 0 0 
5 2 0 5 0 0 2 0 
6 3 1 -5 0 0 0 0 
ITEM: TIMESTEP
1998
ITEM: NUMBER OF ATOMS
6
ITEM: BOX BOUNDS pp pp ff
-1.0000000000000000e+01 1.0000000000000000e+01
-1.0000000000000000e+01 1.0000000000000000e+01
-2.0499999999999998e+00 2.0499999999999998e+00
ITEM: ATOMS id type x y z mux muy muz 
1 1 -2.23677 -5.076 -0.0444142 0 -0 0 
2 1 0.137319 4.97708 0.0250684 0 -0 0 
3 1 2.19915 -5.0322 -0.020857 0 -0 0 
4 2 -1 -5 0 2 0 0 
5 2 0 5 0 0 2 0 
6 3 1 -5 0 0 0 0 
ITEM: TIMESTEP
2331
ITEM: NUMBER OF ATOMS
6
ITEM: BOX BOUNDS pp pp ff
-1.0000000000000000e+01 1.0000000000000000e+01
-1.0000000000000000e+01 1.0000000000000000e+01
-2.0499999999999998e+00 2.0499999999999998e+00
ITEM: ATOMS id type x y z mux muy muz 
1 1 -2.2319 -5.13202 0.0255765 -0 0 0 
2 1 0.0480642 4.99454 0.0364345 -0 0 0 
3 1 2.31462 -5.03766 -0.0252159 -0 0 0 
4 2 -1 -5 0 2 0 0 
5 2 0 5 0 0 2 0 
6 3 1 -5 0 0 0 0 
ITEM: TIMESTEP
2664
ITEM: NUMBER OF ATOMS
6
ITEM: BOX BOUNDS pp pp ff
-1.0000000000000000e+01 1.0000000000000000e+01
-1.0000000000000000e+01 1.0000000000000000e+01
-2.0499999999999998e+00 2.0499999999999998e+00
ITEM: ATOMS id type x y z mux muy muz 
1 1 -2.16948 -5.07091 0.0152957 -0 -0 0 
2 1 0.0790189 5.0724 0.0522206 -0 -0 0 
3 1 2.37379 -4.97004 0.00542655 -0 -0 0 
4 2 -1 -5 0 2 0 0 
5 2 0 5 0 0 2 0 
6 3 1 -5 0 0 0 0 
ITEM: TIMESTEP
2997
ITEM: NUMBER OF ATOMS
6
ITEM: BOX BOUNDS pp pp ff
-1.0000000000000000e+01 1.0000000000000000e+01
-1.0000000000000000e+01 1.0000000000000000e+01
-2.0499999999999998e+00 2.0499999999999998e+00
ITEM: ATOMS id type x y z mux muy muz 
1 1 -2.16658 -5.08537 -0.0427782 0 -0 0 
2 1 0.160157 5.07206 -0.0326814 0 -0 0 
3 1 2.32007 -4.9107 -0.0256443 0 -0 0 
4 2 -1 -5 0 2 0 0 
5 2 0 5 0 0 2 0 
6 3 1 -5 0 0 0 0 
ITEM: TIMESTEP
3330
ITEM: NUMBER OF ATOMS
6
ITEM: BOX BOUNDS pp pp ff
-1.0000000000000000e+01 1.0000000000000000e+01
-1.0000000000000000e+01 1.0000000000000000e+01
-2.0499999999999998e+00 2.0499999999999998e+00
ITEM: ATOMS id type x y z mux muy muz 
1 1 -2.11899 -5.07861 0.000599561 -0 0 0 
2 1 0.15961 5.02986 0.0542867 -0 0 0 
3 1 2.27893 -4.91787 -0.0210191 -0 0 0 
4 2 -1 -5 0 2 0 0 
5 2 0 5 0 0 2 0 
6 3 1 -5 0 0 0 0 
ITEM: TIMESTEP
3663
ITEM: NUMBER OF ATOMS
6
ITEM: BOX BOUNDS pp pp ff
-1.0000000000000000e+01 1.0000000000000000e+01
-1.0000000000000000e+01 1.0000000000000000e+01
-2.0499999999999998e+00 2.0499999999999998e+00
ITEM: ATOMS id type x y z mux muy muz 
1 1 -2.07138 -5.01847 0.0473339 -0 -0 0 
2 1 0.193436 5.07795 0.00275423 -0 -0 0 
3 1 2.18839 -4.81232 0.0251442 -0 -0 0 
4 2 -1 -5 0 2 0 0 
5 2 0 5 0 0 2 0 
6 3 1 -5 0 0 0 0 
ITEM: TIMESTEP
3996
ITEM: NUMBER OF ATOMS
6
ITEM: BOX BOUNDS pp pp ff
-1.0000000000000000e+01 1.0000000000000000e+01
-1.0000000000000000e+01 1.0000000000000000e+01
-2.0499999999999998e+00 2.0499999999999998e+00
ITEM: ATOMS id type x y z mux muy muz 
1 1 -2.21344 -4.99286 0.0179353 0 -0 0 
2 1 0.0978443 5.16609 0.0328315 0 -0 0 
3 1 2.1907 -4.79429 0.04233 0 -0 0 
4 2 -1 -5 0 2 0 0 
5 2 0 5 0 0 2 0 
6 3 1 -5 0 0 0 0 
ITEM: TIMESTEP
4329
ITEM: NUMBER OF ATOMS
6
ITEM: BOX BOUNDS pp pp ff
-1.0000000000000000e+01 1.0000000000000000e+01
-1.0000000000000000e+01 1.0000000000000000e+01
-2.0499999999999998e+00 2.0499999999999998e+00
ITEM: ATOMS id type x y z mux muy muz 
1 1 -2.14498 -5.01847 -0.0287984 -0 0 0 
2 1 0.115868 5.16672 0.0328815 -0 0 0 
3 1 2.17482 -4.69037 -0.0582644 -0 0 0 
4 2 -1 -5 0 2 0 0 
5 2 0 5 0 0 2 0 
6 3 1 -5 0 0 0 0 
ITEM: TIMESTEP
4662
ITEM: NUMBER OF ATOMS
6
ITEM: BOX BOUNDS pp pp ff
-1.0000000000000000e+01 1.0000000000000000e+01
-1.0000000000000000e+01 1.0000000000000000e+01
-2.0499999999999998e+00 2.0499999999999998e+00
ITEM: ATOMS id type x y z mux muy muz 
1 1 -2.15507 -5.05431 0.0551797 -0 -0 0 
2 1 0.0296988 5.17326 -0.0389897 -0 -0 0 
3 1 2.08763 -4.65334 0.0153895 -0 -0 0 
4 2 -1 -5 0 2 0 0 
5 2 0 5 0 0 2 0 
6 3 1 -5 0 0 0 0 
ITEM: TIMESTEP
4995
ITEM: NUMBER OF ATOMS
6
ITEM: BOX BOUNDS pp pp ff
-1.0000000000000000e+01 1.0000000000000000e+01
-1.0000000000000000e+01 1.0000000000000000e+01
-2.0499999999999998e+00 2.0499999999999998e+00
ITEM: ATOMS id type x y z mux muy muz 
1 1 -2.16372 -5.04477 -0.053444 0 -0 0 
2 1 0.0948378 5.17608 0.025146 0 -0 0 
3 1 2.02396 -4.71679 -0.0422776 0 -0 0 
4 2 -1 -5 0 2 0 0 
5 2 0 5 0 0 2 0 
6 3 1 -5 0 0 0 0 
ITEM: TIMESTEP
5328
ITEM: NUMBER OF ATOMS
6
ITEM: BOX BOUNDS pp pp ff
-1.0000000000000000e+01 1.0000000000000000e+01
-1.0000000000000000e+01 1.0000000000000000e+01
-2.0499999999999998e+00 2.0499999999999998e+00
ITEM: ATOMS id type x y z mux muy muz 
1 1 -2.14203 -5.17573 0.0344858 -0 0 0 
2 1 0.117552 5.04991 0.0381611 -0 0 0 
3 1 1.894 -4.72522 -0.0491105 -0 0 0 
4 2 -1 -5 0 2 0 0 
5 2 0 5 0 0 2 0 
6 3 1 -5 0 0 0 0 
ITEM: TIMESTEP
5661
ITEM: NUMBER OF ATOMS
6
ITEM: BOX BOUNDS pp pp ff
-1.0000000000000000e+01 1.0000000000000000e+01
-1.0000000000000000e+01 1.0000000000000000e+01
-2.0499999999999998e+00 2.0499999999999998e+00
ITEM: ATOMS id type x y z mux muy muz 
1 1 -2.1363 -5.13048 0.0295758 -0 -0 0 
2 1 0.0616258 5.16591 -0.0285085 -0 -0 0 
3 1 1.80292 -4.51488 -0.0321942 -0 -0 0 
4 2 -1 -5 0 2 0 0 
5 2 0 5 0 0 2 0 
6 3 1 -5 0 0 0 0 
ITEM: TIMESTEP
5994
ITEM: NUMBER OF ATOMS
6
ITEM: BOX BOUNDS pp pp ff
-1.0000000000000000e+01 1.0000000000000000e+01
-1.0000000000000000e+01 1.0000000000000000e+01
-2.0499999999999998e+00 2.0499999999999998e+00
ITEM: ATOMS id type x y z mux muy muz 
1 1 -2.18843 -4.96919 -0.0477241 0 -0 0 
2 1 0.131898 5.17696 0.0477092 0 -0 0 
3 1 1.84898 -4.45013 -0.055347 0 -0 0 
4 2 -1 -5 0 2 0 0 
5 2 0 5 0 0 2 0 
6 3 1 -5 0 0 0 0 
ITEM: TIMESTEP
6327
ITEM: NUMBER OF ATOMS
6
ITEM: BOX BOUNDS pp pp ff
-1.0000000000000000e+01 1.0000000000000000e+01
-1.0000000000000000e+01 1.0000000000000000e+01
-2.0499999999999998e+00 2.0499999999999998e+00
ITEM: ATOMS id type x y z mux muy muz 
1 1 -2.10814 -4.92952 0.0336609 -0 0 0 
2 1 0.254641 5.1946 -0.0498341 -0 0 0 
3 1 1.88484 -4.41374 -0.00968099 -0 0 0 
4 2 -1 -5 0 2 0 0 
5 2 0 5 0 0 2 0 
6 3 1 -5 0 0 0 0 
ITEM: TIMESTEP
6660
ITEM: NUMBER OF ATOMS
6
ITEM: BOX BOUNDS pp pp ff
-1.0000000000000000e+01 1.0000000000000000e+01
-1.0000000000000000e+01 1.0000000000000000e+01
-2.0499999999999998e+00 2.0499999999999998e+00
ITEM: ATOMS id type x y z mux muy muz 
1 1 -2.14752 -5.06449 -0.0251997 -0 -0 0 
2 1 0.111752 5.21881 0.0496193 -0 -0 0 
3 1 1.84841 -4.34222 -0.00353556 -0 -0 0 
4 2 -1 -5 0 2 0 0 
5 2 0 5 0 0 2 0 
6 3 1 -5 0 0 0 0 
ITEM: TIMESTEP
6993
ITEM: NUMBER OF ATOMS
6
ITEM: BOX BOUNDS pp pp ff
-1.0000000000000000e+01 1.0000000000000000e+01
-1.0000000000000000e+01 1.0000000000000000e+01
-2.0499999999999998e+00 2.0499999999999998e+00
ITEM: ATOMS id type x y z mux muy muz 
1 1 -2.19439 -5.06063 0.0179414 0 -0 0 
2 1 0.0384064 5.27141 -0.0413687 0 -0 0 
3 1 1.81943 -4.42623 0.0474804 0 -0 0 
4 2 -1 -5 0 2 0 0 
5 2 0 5 0 0 2 0 
6 3 1 -5 0 0 0 0 
ITEM: TIMESTEP
7326
ITEM: NUMBER OF ATOMS
6
ITEM: BOX BOUNDS pp pp ff
-1.0000000000000000e+01 1.0000000000000000e+01
-1.0000000000000000e+01 1.0000000000000000e+01
-2.0499999999999998e+00 2.0499999999999998e+00
ITEM: ATOMS id type x y z mux muy muz 
1 1 -2.20854 -5.05841 -0.0103418 -0 0 0 
2 1 0.115706 5.19001 -0.0278841 -0 0 0 
3 1 1.77997 -4.43321 0.0480039 -0 0 0 
4 2 -1 -5 0 2 0 0 
5 2 0 5 0 0 2 0 
6 3 1 -5 0 0 0 0 
ITEM: TIMESTEP
7659
ITEM: NUMBER OF ATOMS
6
ITEM: BOX BOUNDS pp pp ff
-1.0000000000000000e+01 1.0000000000000000e+01
-1.0000000000000000e+01 1.0000000000000000e+01
-2.0499999999999998e+00 2.0499999999999998e+00
ITEM: ATOMS id type x y z mux muy muz 
1 1 -2.29647 -4.88026 -0.03536 -0 -0 0 
2 1 0.168016 5.24078 -0.0306138 -0 -0 0 
3 1 1.73435 -4.51171 -0.0270493 -0 -0 0 
4 2 -1 -5 0 2 0 0 
5 2 0 5 0 0 2 0 
6 3 1 -5 0 0 0 0 
ITEM: TIMESTEP
7992
ITEM: NUMBER OF ATOMS
6
ITEM: BOX BOUNDS pp pp ff
-1.0000000000000000e+01 1.0000000000000000e+01
-1.0000000000000000e+01 1.0000000000000000e+01
-2.0499999999999998e+00 2.0499999999999998e+00
ITEM: ATOMS id type x y z mux muy muz 
1 1 -2.20189 -4.90464 0.0121069 0 -0 0 
2 1 0.0867152 5.34163 0.0228479 0 -0 0 
3 1 1.82276 -4.5315 0.0262947 0 -0 0 
4 2 -1 -5 0 2 0 0 
5 2 0 5 0 0 2 0 
6 3 1 -5 0 0 0 0 
ITEM: TIMESTEP
8325
ITEM: NUMBER OF ATOMS
6
ITEM: BOX BOUNDS pp pp ff
-1.0000000000000000e+01 1.0000000000000000e+01
-1.0000000000000000e+01 1.0000000000000000e+01
-2.0499999999999998e+00 2.0499999999999998e+00
ITEM: ATOMS id type x y z mux muy muz 
1 1 -2.16999 -4.93308 0.0294608 0 0 0 
2 1 0.00154262 5.32846 0.0165338 0 0 0 
3 1 1.79723 -4.52145 -0.0283286 0 0 0 
4 2 -1 -5 0 2 0 0 
5 2 0 5 0 0 2 0 
6 3 1 -5 0 0 0 0 
ITEM: TIMESTEP
8658
ITEM: NUMBER OF ATOMS
6
ITEM: BOX BOUNDS pp pp ff
-1.0000000000000000e+01 1.0000000000000000e+01
-1.0000000000000000e+01 1.0000000000000000e+01
-2.0499999999999998e+00 2.0499999999999998e+00
ITEM: ATOMS id type x y z mux muy muz 
1 1 -2.13175 -4.98854 0.0454488 -0 -0 0 
2 1 0.0188601 5.28427 0.0150467 -0 -0 0 
3 1 1.84485 -4.47315 0.0412993 -0 -0 0 
4 2 -1 -5 0 2 0 0 
5 2 0 5 0 0 2 0 
6 3 1 -5 0 0 0 0 
ITEM: TIMESTEP
8991
ITEM: NUMBER OF ATOMS
6
ITEM: BOX BOUNDS pp pp ff
-1.0000000000000000e+01 1.0000000000000000e+01
-1.0000000000000000e+01 1.0000000000000000e+01
-2.0499999999999998e+00 2.0499999999999998e+00
ITEM: ATOMS id type x y z mux muy muz 
1 1 -2.1424 -4.98358 -0.0299429 0 -0 0 
2 1 -0.00962528 5.33595 -0.0241208 0 -0 0 
3 1 1.83935 -4.49693 -0.0427287 0 -0 0 
4 2 -1 -5 0 2 0 0 
5 2 0 5 0 0 2 0 
6 3 1 -5 0 0 0 0 
ITEM: TIMESTEP
9324
ITEM: NUMBER OF ATOMS
6
ITEM: BOX BOUNDS pp pp ff
-1.0000000000000000e+01 1.0000000000000000e+01
-1.0000000000000000e+01 1.0000000000000000e+01
-2.0499999999999998e+00 2.0499999999999998e+00
ITEM: ATOMS id type x y z mux muy muz 
1 1 -2.06263 -4.95701 0.0117758 0 0 0 
2 1 0.0857147 5.36506 0.0137622 0 0 0 
3 1 1.92827 -4.5913 0.046052 0 0 0 
4 2 -1 -5 0 2 0 0 
5 2 0 5 0 0 2 0 
6 3 1 -5 0 0 0 0 
ITEM: TIMESTEP
9657
ITEM: NUMBER OF ATOMS
6
ITEM: BOX BOUNDS pp pp ff
-1.0000000000000000e+01 1.0000000000000000e+01
-1.0000000000000000e+01 1.0000000000000000e+01
-2.0499999999999998e+00 2.0499999999999998e+00
ITEM: ATOMS id type x y z mux muy muz 
1 1 -2.079 -4.99957 0.0173156 -0 -0 0 
2 1 0.178612 5.38262 -0.00657497 -0 -0 0 
3 1 1.94965 -4.50392 0.031399 -0 -0 0 
4 2 -1 -5 0 2 0 0 
5 2 0 5 0 0 2 0 
6 3 1 -5 0 0 0 0 
ITEM: TIMESTEP
9990
ITEM: NUMBER OF ATOMS
6
ITEM: BOX BOUNDS pp pp ff
-1.0000000000000000e+01 1.0000000000000000e+01
-1.0000000000000000e+01 1.0000000000000000e+01
-2.0499999999999998e+00 2.0499999999999998e+00
ITEM: ATOMS id type x y z mux muy muz 
1 1 -2.12993 -4.97918 -0.00793715 0 -0 0 
2 1 0.156817 5.49168 -0.0408212 0 -0 0 
3 1 1.98445 -4.51111 -0.0444907 0 -0 0 
4 2 -1 -5 0 2 0 0 
5 2 0 5 0 0 2 0 
6 3 1 -5 0 0 0 0 
ITEM: TIMESTEP
10323
ITEM: NUMBER OF ATOMS
6
ITEM: BOX BOUNDS pp pp ff
-1.0000000000000000e+01 1.0000000000000000e+01
-1.0000000000000000e+01 1.0000000000000000e+01
-2.0499999999999998e+00 2.0499999999999998e+00
ITEM: ATOMS id type x y z mux muy muz 
1 1 -2.14917 -5.03301 0.0118513 0 0 0 
2 1 0.134987 5.54111 -0.0475612 0 0 0 
3 1 2.00266 -4.45863 0.0111571 0 0 0 
4 2 -1 -5 0 2 0 0 
5 2 0 5 0 0 2 0 
6 3 1 -5 0 0 0 0 
ITEM: TIMESTEP
10656
ITEM: NUMBER OF ATOMS
6
ITEM: BOX BOUNDS pp pp ff
-1.0000000000000000e+01 1.0000000000000000e+01
-1.0000000000000000e+01 1.0000000000000000e+01
-2.0499999999999998e+00 2.0499999999999998e+00
ITEM: ATOMS id type x y z mux muy muz 
1 1 -2.16942 -5.12555 0.0536212 -0 -0 0 
2 1 0.0742095 5.55803 -0.00821184 -0 -0 0 
3 1 1.89543 -4.34919 0.0526354 -0 -0 0 
4 2 -1 -5 0 2 0 0 
5 2 0 5 0 0 2 0 
6 3 1 -5 0 0 0 0 
ITEM: TIMESTEP
10989
ITEM: NUMBER OF ATOMS
6
ITEM: BOX BOUNDS pp pp ff
-1.0000000000000000e+01 1.0000000000000000e+01
-1.0000000000000000e+01 1.0000000000000000e+01
-2.0499999999999998e+00 2.0499999999999998e+00
ITEM: ATOMS id type x y z mux muy muz 
1 1 -2.10739 -5.13133 -0.0189024 0 -0 0 
2 1 0.157442 5.65605 0.00566869 0 -0 0 
3 1 1.89712 -4.32685 -0.00456951 0 -0 0 
4 2 -1 -5 0 2 0 0 
5 2 0 5 0 0 2 0 
6 3 1 -5 0 0 0 0 
ITEM: TIMESTEP
11322
ITEM: NUMBER OF ATOMS
6
ITEM: BOX BOUNDS pp pp ff
-1.0000000000000000e+01 1.0000000000000000e+01
-1.0000000000000000e+01 1.0000000000000000e+01
-2.0499999999999998e+00 2.0499999999999998e+00
ITEM: ATOMS id type x y z mux muy muz 
1 1 -2.12433 -5.12609 -0.0145605 0 0 0 
2 1 0.143124 5.52052 0.0621745 0 0 0 
3 1 1.94158 -4.30685 0.0259129 0 0 0 
4 2 -1 -5 0 2 0 0 
5 2 0 5 0 0 2 0 
6 3 1 -5 0 0 0 0 
ITEM: TIMESTEP
11655
ITEM: NUMBER OF ATOMS
6
ITEM: BOX BOUNDS pp pp ff
-1.0000000000000000e+01 1.0000000000000000e+01
-1.0000000000000000e+01 1.0000000000000000e+01
-2.0499999999999998e+00 2.0499999999999998e+00
ITEM: ATOMS id type x y z mux muy muz 
1 1 -2.15872 -5.11954 -0.014798 -0 -0 0 
2 1 0.159571 5.51288 0.0372897 -0 -0 0 
3 1 1.86948 -4.43976 0.00556609 -0 -0 0 
4 2 -1 -5 0 2 0 0 
5 2 0 5 0 0 2 0 
6 3 1 -5 0 0 0 0 
ITEM: TIMESTEP
11988
ITEM: NUMBER OF ATOMS
6
ITEM: BOX BOUNDS pp pp ff
-1.0000000000000000e+01 1.0000000000000000e+01
-1.0000000000000000e+01 1.0000000000000000e+01
-2.0499999999999998e+00 2.0499999999999998e+00
ITEM: ATOMS id type x y z mux muy muz 
1 1 -2.12532 -5.04991 -0.0463066 0 -0 0 
2 1 0.216857 5.338 0.0277351 0 -0 0 
3 1 1.9597 -4.4762 -0.0445703 0 -0 0 
4 2 -1 -5 0 2 0 0 
5 2 0 5 0 0 2 0 
6 3 1 -5 0 0 0 0 
ITEM: TIMESTEP
12321
ITEM: NUMBER OF ATOMS
6
ITEM: BOX BOUNDS pp pp ff
-1.0000000000000000e+01 1.0000000000000000e+01
-1.0000000000000000e+01 1.0000000000000000e+01
-2.0499999999999998e+00 2.0499999999999998e+00
ITEM: ATOMS id type x y z mux muy muz 
1 1 -2.02371 -5.06913 0.0257328 0 0 0 
2 1 0.174621 5.39711 0.0580883 0 0 0 
3 1 1.9648 -4.42068 -0.0541445 0 0 0 
4 2 -1 -5 0 2 0 0 
5 2 0 5 0 0 2 0 
6 3 1 -5 0 0 0 0 
ITEM: TIMESTEP
12654
ITEM: NUMBER OF ATOMS
6
ITEM: BOX BOUNDS pp pp ff
-1.0000000000000000e+01 1.0000000000000000e+01
-1.0000000000000000e+01 1.0000000000000000e+01
-2.0499999999999998e+00 2.0499999999999998e+00
ITEM: ATOMS id type x y z mux muy muz 
1 1 -1.90643 -5.04083 -0.0298573 -0 -0 0 
2 1 0.192651 5.30129 0.0366634 -0 -0 0 
3 1 2.02223 -4.32187 -0.000517176 -0 -0 0 
4 2 -1 -5 0 2 0 0 
5 2 0 5 0 0 2 0 
6 3 1 -5 0 0 0 0 
ITEM: TIMESTEP
12987
ITEM: NUMBER OF ATOMS
6
ITEM: BOX BOUNDS pp pp ff
-1.0000000000000000e+01 1.0000000000000000e+01
-1.0000000000000000e+01 1.0000000000000000e+01
-2.0499999999999998e+00 2.0499999999999998e+00
ITEM: ATOMS id type x y z mux muy muz 
1 1 -1.88183 -5.01504 0.0211599 0 -0 0 
2 1 0.235849 5.23467 0.0453976 0 -0 0 
3 1 2.13552 -4.34799 0.04386 0 -0 0 
4 2 -1 -5 0 2 0 0 
5 2 0 5 0 0 2 0 
6 3 1 -5 0 0 0 0 
ITEM: TIMESTEP
13320
ITEM: NUMBER OF ATOMS
6
ITEM: BOX BOUNDS pp pp ff
-1.0000000000000000e+01 1.0000000000000000e+01
-1.0000000000000000e+01 1.0000000000000000e+01
-2.0499999999999998e+00 2.0499999999999998e+00
ITEM: ATOMS id type x y z mux muy muz 
1 1 -1.89317 -4.98319 0.0342523 0 0 0 
2 1 0.222035 5.21174 0.0433958 0 0 0 
3 1 2.18422 -4.22881 -0.00314541 0 0 0 
4 2 -1 -5 0 2 0 0 
5 2 0 5 0 0 2 0 
6 3 1 -5 0 0 0 0 
ITEM: TIMESTEP
13653
ITEM: NUMBER OF ATOMS
6
ITEM: BOX BOUNDS pp pp ff
-1.0000000000000000e+01 1.0000000000000000e+01
-1.0000000000000000e+01 1.0000000000000000e+01
-2.0499999999999998e+00 2.0499999999999998e+00
ITEM: ATOMS id type x y z mux muy muz 
1 1 -1.92806 -5.02495 -0.0566089 -0 -0 0 
2 1 0.140437 5.2827 0.0491165 -0 -0 0 
3 1 2.12385 -4.28026 -0.0321779 -0 -0 0 
4 2 -1 -5 0 2 0 0 
5 2 0 5 0 0 2 0 
6 3 1 -5 0 0 0 0 
ITEM: TIMESTEP
13986
ITEM: NUMBER OF ATOMS
6
ITEM: BOX BOUNDS pp pp ff
-1.0000000000000000e+01 1.0000000000000000e+01
-1.0000000000000000e+01 1.0000000000000000e+01
-2.0499999999999998e+00 2.0499999999999998e+00
ITEM: ATOMS id type x y z mux muy muz 
1 1 -1.82632 -5.04997 0.00704198 0 -0 0 
2 1 0.143421 5.24627 0.0119545 0 -0 0 
3 1 2.12803 -4.37359 -0.0140098 0 -0 0 
4 2 -1 -5 0 2 0 0 
5 2 0 5 0 0 2 0 
6 3 1 -5 0 0 0 0 
ITEM: TIMESTEP
14319
ITEM: NUMBER OF ATOMS
6
ITEM: BOX BOUNDS pp pp ff
-1.0000000000000000e+01 1.0000000000000000e+01
-1.0000000000000000e+01 1.0000000000000000e+01
-2.0499999999999998e+00 2.0499999999999998e+00
ITEM: ATOMS id type x y z mux muy muz 
1 1 -1.82968 -4.95337 0.00375289 0 0 0 
2 1 0.0952281 5.25169 0.0354839 0 0 0 
3 1 2.14258 -4.31635 0.0249572 0 0 0 
4 2 -1 -5 0 2 0 0 
5 2 0 5 0 0 2 0 
6 3 1 -5 0 0 0 0 
ITEM: TIMESTEP
14652
ITEM: NUMBER OF ATOMS
6
ITEM: BOX BOUNDS pp pp ff
-1.0000000000000000e+01 1.0000000000000000e+01
-1.0000000000000000e+01 1.0000000000000000e+01
-2.0499999999999998e+00 2.0499999999999998e+00
ITEM: ATOMS id type x y z mux muy muz 
1 1 -1.91215 -4.99478 -0.0111286 -0 -0 0 
2 1 0.0489776 5.21483 0.052182 -0 -0 0 
3 1 2.21881 -4.40419 0.0503296 -0 -0 0 
4 2 -1 -5 0 2 0 0 
5 2 0 5 0 0 2 0 
6 3 1 -5 0 0 0 0 
ITEM: TIMESTEP
14985
ITEM: NUMBER OF ATOMS
6
ITEM: BOX BOUNDS pp pp ff
-1.0000000000000000e+01 1.0000000000000000e+01
-1.0000000000000000e+01 1.0000000000000000e+01
-2.0499999999999998e+00 2.0499999999999998e+00
ITEM: ATOMS id type x y z mux muy muz 
1 1 -1.90799 -4.98283 0.0464686 0 -0 0 
2 1 0.000978819 5.13832 0.0186104 0 -0 0 
3 1 2.22739 -4.30012 0.000650834 0 -0 0 
4 2 -1 -5 0 2 0 0 
5 2 0 5 0 0 2 0 
6 3 1 -5 0 0 0 0 
ITEM: TIMESTEP
15318
ITEM: NUMBER OF ATOMS
6
ITEM: BOX BOUNDS pp pp ff
-1.0000000000000000e+01 1.0000000000000000e+01
-1.0000000000000000e+01 1.0000000000000000e+01
-2.0499999999999998e+00 2.0499999999999998e+00
ITEM: ATOMS id type x y z mux muy muz 
1 1 -1.84021 -5.01224 -0.0219135 0 0 0 
2 1 -0.138852 5.12792 0.038671 0 0 0 
3 1 2.22694 -4.28207 0.0463196 0 0 0 
4 2 -1 -5 0 2 0 0 
5 2 0 5 0 0 2 0 
6 3 1 -5 0 0 0 0 
ITEM: TIMESTEP
15651
ITEM: NUMBER OF ATOMS
6
ITEM: BOX BOUNDS pp pp ff
-1.0000000000000000e+01 1.0000000000000000e+01
-1.0000000000000000e+01 1.0000000000000000e+01
-2.0499999999999998e+00 2.0499999999999998e+00
ITEM: ATOMS id type x y z mux muy muz 
1 1 -1.82324 -4.9593 0.0259807 -0 -0 0 
2 1 0.00798009 5.23371 0.0125333 -0 -0 0 
3 1 2.13741 -4.31382 0.0384017 -0 -0 0 
4 2 -1 -5 0 2 0 0 
5 2 0 5 0 0 2 0 
6 3 1 -5 0 0 0 0 
ITEM: TIMESTEP
15984
ITEM: NUMBER OF ATOMS
6
ITEM: BOX BOUNDS pp pp ff
-1.0000000000000000e+01 1.0000000000000000e+01
-1.0000000000000000e+01 1.0000000000000000e+01
-2.0499999999999998e+00 2.0499999999999998e+00
ITEM: ATOMS id type x y z mux muy muz 
1 1 -1.86364 -4.93683 0.026796 0 -0 0 
2 1 0.0936913 5.34411 -0.0276556 0 -0 0 
3 1 2.15285 -4.40914 -0.00457978 0 -0 0 
4 2 -1 -5 0 2 0 0 
5 2 0 5 0 0 2 0 
6 3 1 -5 0 0 0 0 
ITEM: TIMESTEP
16317
ITEM: NUMBER OF ATOMS
6
ITEM: BOX BOUNDS pp pp ff
-1.0000000000000000e+01 1.0000000000000000e+01
-1.0000000000000000e+01 1.0000000000000000e+01
-2.0499999999999998e+00 2.0499999999999998e+00
ITEM: ATOMS id type x y z mux muy muz 
1 1 -1.94216 -4.94395 0.0492571 0 0 0 
2 1 0.178885 5.39528 0.0246566 0 0 0 
3 1 2.03574 -4.50428 -0.0226423 0 0 0 
4 2 -1 -5 0 2 0 0 
5 2 0 5 0 0 2 0 
6 3 1 -5 0 0 0 0 
ITEM: TIMESTEP
16650
ITEM: NUMBER OF ATOMS
6
ITEM: BOX BOUNDS pp pp ff
-1.0000000000000000e+01 1.0000000000000000e+01
-1.0000000000000000e+01 1.0000000000000000e+01
-2.0499999999999998e+00 2.0499999999999998e+00
ITEM: ATOMS id type x y z mux muy muz 
1 1 -2.02488 -5.00313 0.00175696 -0 0 0 
2 1 0.197056 5.32792 0.00864548 -0 0 0 
3 1 2.03313 -4.43225 0.00352816 -0 0 0 
4 2 -1 -5 0 2 0 0 
5 2 0 5 0 0 2 0 
6 3 1 -5 0 0 0 0 
ITEM: TIMESTEP
16983
ITEM: NUMBER OF ATOMS
6
ITEM: BOX BOUNDS pp pp ff
-1.0000000000000000e+01 1.0000000000000000e+01
-1.0000000000000000e+01 1.0000000000000000e+01
-2.0499999999999998e+00 2.0499999999999998e+00
ITEM: ATOMS id type x y z mux muy muz 
1 1 -2.03963 -4.89704 -0.0170325 0 -0 0 
2 1 0.183172 5.35195 -0.00179616 0 -0 0 
3 1 2.11599 -4.36904 0.019919 0 -0 0 
4 2 -1 -5 0 2 0 0 
5 2 0 5 0 0 2 0 
6 3 1 -5 0 0 0 0 
ITEM: TIMESTEP
17316
ITEM: NUMBER OF ATOMS
6
ITEM: BOX BOUNDS pp pp ff
-1.0000000000000000e+01 1.0000000000000000e+01
-1.0000000000000000e+01 1.0000000000000000e+01
-2.0499999999999998e+00 2.0499999999999998e+00
ITEM: ATOMS id type x y z mux muy muz 
1 1 -2.01391 -4.85273 0.0300815 0 0 0 
2 1 0.146483 5.29119 0.0120501 0 0 0 
3 1 2.18433 -4.37394 0.0216664 0 0 0 
4 2 -1 -5 0 2 0 0 
5 2 0 5 0 0 2 0 
6 3 1 -5 0 0 0 0 
ITEM: TIMESTEP
17649
ITEM: NUMBER OF ATOMS
6
ITEM: BOX BOUNDS pp pp ff
-1.0000000000000000e+01 1.0000000000000000e+01
-1.0000000000000000e+01 1.0000000000000000e+01
-2.0499999999999998e+00 2.0499999999999998e+00
ITEM: ATOMS id type x y z mux muy muz 
1 1 -2.00966 -4.94497 0.0540024 -0 0 0 
2 1 0.120226 5.14996 -0.00382946 -0 0 0 
3 1 2.10741 -4.44639 0.0344898 -0 0 0 
4 2 -1 -5 0 2 0 0 
5 2 0 5 0 0 2 0 
6 3 1 -5 0 0 0 0 
ITEM: TIMESTEP
17982
ITEM: NUMBER OF ATOMS
6
ITEM: BOX BOUNDS pp pp ff
-1.0000000000000000e+01 1.0000000000000000e+01
-1.0000000000000000e+01 1.0000000000000000e+01
-2.0499999999999998e+00 2.0499999999999998e+00
ITEM: ATOMS id type x y z mux muy muz 
1 1 -2.07544 -4.94921 0.0280198 0 -0 0 
2 1 0.167534 5.21651 -0.0452746 0 -0 0 
3 1 1.99941 -4.46565 0.0302542 0 -0 0 
4 2 -1 -5 0 2 0 0 
5 2 0 5 0 0 2 0 
6 3 1 -5 0 0 0 0 
ITEM: TIMESTEP
18315
ITEM: NUMBER OF ATOMS
6
ITEM: BOX BOUNDS pp pp ff
-1.0000000000000000e+01 1.0000000000000000e+01
-1.0000000000000000e+01 1.0000000000000000e+01
-2.0499999999999998e+00 2.0499999999999998e+00
ITEM: ATOMS id type x y z mux muy muz 
1 1 -2.1154 -4.95184 0.0188911 0 0 0 
2 1 0.122209 5.23565 0.016266 0 0 0 
3 1 2.08422 -4.45845 -0.0477006 0 0 0 
4 2 -1 -5 0 2 0 0 
5 2 0 5 0 0 2 0 
6 3 1 -5 0 0 0 0 
ITEM: TIMESTEP
18648
ITEM: NUMBER OF ATOMS
6
ITEM: BOX BOUNDS pp pp ff
-1.0000000000000000e+01 1.0000000000000000e+01
-1.0000000000000000e+01 1.0000000000000000e+01
-2.0499999999999998e+00 2.0499999999999998e+00
ITEM: ATOMS id type x y z mux muy muz 
1 1 -2.14334 -4.8314 0.035584 -0 0 0 
2 1 0.0987091 5.23517 0.0119149 -0 0 0 
3 1 2.07505 -4.42138 -0.0616869 -0 0 0 
4 2 -1 -5 0 2 0 0 
5 2 0 5 0 0 2 0 
6 3 1 -5 0 0 0 0 
ITEM: TIMESTEP
18981
ITEM: NUMBER OF ATOMS
6
ITEM: BOX BOUNDS pp pp ff
-1.0000000000000000e+01 1.0000000000000000e+01
-1.0000000000000000e+01 1.0000000000000000e+01
-2.0499999999999998e+00 2.0499999999999998e+00
ITEM: ATOMS id type x y z mux muy muz 
1 1 -2.07828 -4.90123 0.00527513 0 -0 0 
2 1 0.00926351 5.21836 -0.0442139 0 -0 0 
3 1 2.06265 -4.35172 0.00716283 0 -0 0 
4 2 -1 -5 0 2 0 0 
5 2 0 5 0 0 2 0 
6 3 1 -5 0 0 0 0 
ITEM: TIMESTEP
19314
ITEM: NUMBER OF ATOMS
6
ITEM: BOX BOUNDS pp pp ff
-1.0000000000000000e+01 1.0000000000000000e+01
-1.0000000000000000e+01 1.0000000000000000e+01
-2.0499999999999998e+00 2.0499999999999998e+00
ITEM: ATOMS id type x y z mux muy muz 
1 1 -2.11803 -4.94987 -0.0203662 0 0 0 
2 1 0.113858 5.27633 -0.0288796 0 0 0 
3 1 1.99637 -4.29398 0.0183549 0 0 0 
4 2 -1 -5 0 2 0 0 
5 2 0 5 0 0 2 0 
6 3 1 -5 0 0 0 0 
ITEM: TIMESTEP
19647
ITEM: NUMBER OF ATOMS
6
ITEM: BOX BOUNDS pp pp ff
-1.0000000000000000e+01 1.0000000000000000e+01
-1.0000000000000000e+01 1.0000000000000000e+01
-2.0499999999999998e+00 2.0499999999999998e+00
ITEM: ATOMS id type x y z mux muy muz 
1 1 -2.16201 -4.9685 -0.0460838 -0 0 0 
2 1 0.00757013 5.39781 -0.00700165 -0 0 0 
3 1 2.00671 -4.34421 0.0267442 -0 0 0 
4 2 -1 -5 0 2 0 0 
5 2 0 5 0 0 2 0 
6 3 1 -5 0 0 0 0 
ITEM: TIMESTEP
19980
ITEM: NUMBER OF ATOMS
6
ITEM: BOX BOUNDS pp pp ff
-1.0000000000000000e+01 1.0000000000000000e+01
-1.0000000000000000e+01 1.0000000000000000e+01
-2.0499999999999998e+00 2.0499999999999998e+00
ITEM: ATOMS id type x y z mux muy muz 
1 1 -2.15272 -4.93895 -0.00498542 0 -0 0 
2 1 0.0117053 5.48923 0.0439894 0 -0 0 
3 1 2.10354 -4.34328 0.0542602 0 -0 0 
4 2 -1 -5 0 2 0 0 
5 2 0 5 0 0 2 0 
6 3 1 -5 0 0 0 0 
ITEM: TIMESTEP
20313
ITEM: NUMBER OF ATOMS
6
ITEM: BOX BOUNDS pp pp ff
-1.0000000000000000e+01 1.0000000000000000e+01
-1.0000000000000000e+01 1.0000000000000000e+01
-2.0499999999999998e+00 2.0499999999999998e+00
ITEM: ATOMS id type x y z mux muy muz 
1 1 -2.06943 -5.01299 0.0203647 0 0 0 
2 1 -0.0287125 5.38881 0.0162007 0 0 0 
3 1 2.16908 -4.33134 -2.69053e-05 0 0 0 
4 2 -1 -5 0 2 0 0 
5 2 0 5 0 0 2 0 
6 3 1 -5 0 0 0 0 
ITEM: TIMESTEP
20646
ITEM: NUMBER OF ATOMS
6
ITEM: BOX BOUNDS pp pp ff
-1.0000000000000000e+01 1.0000000000000000e+01
-1.0000000000000000e+01 1.0000000000000000e+01
-2.0499999999999998e+00 2.0499999999999998e+00
ITEM: ATOMS id type x y z mux muy muz 
1 1 -2.05134 -5.01964 -0.0366179 -0 0 0 
2 1 -0.0940312 5.39228 0.0283608 -0 0 0 
3 1 2.13053 -4.25931 -0.045974 -0 0 0 
4 2 -1 -5 0 2 0 0 
5 2 0 5 0 0 2 0 
6 3 1 -5 0 0 0 0 
ITEM: TIMESTEP
20979
ITEM: NUMBER OF ATOMS
6
ITEM: BOX BOUNDS pp pp ff
-1.0000000000000000e+01 1.0000000000000000e+01
-1.0000000000000000e+01 1.0000000000000000e+01
-2.0499999999999998e+00 2.0499999999999998e+00
ITEM: ATOMS id type x y z mux muy muz 
1 1 -2.12615 -5.08001 -0.0333414 0 -0 0 
2 1 -0.00346029 5.30121 0.0362049 0 -0 0 
3 1 2.20465 -4.23347 -0.0102475 0 -0 0 
4 2 -1 -5 0 2 0 0 
5 2 0 5 0 0 2 0 
6 3 1 -5 0 0 0 0 
ITEM: TIMESTEP
21312
ITEM: NUMBER OF ATOMS
6
ITEM: BOX BOUNDS pp pp ff
-1.0000000000000000e+01 1.0000000000000000e+01
-1.0000000000000000e+01 1.0000000000000000e+01
-2.0499999999999998e+00 2.0499999999999998e+00
ITEM: ATOMS id type x y z mux muy muz 
1 1 -2.21697 -5.11161 0.0163575 0 0 0 
2 1 0.009758 5.23754 -0.0551973 0 0 0 
3 1 2.06527 -4.32212 0.0133879 0 0 0 
4 2 -1 -5 0 2 0 0 
5 2 0 5 0 0 2 0 
6 3 1 -5 0 0 0 0 
ITEM: TIMESTEP
21645
ITEM: NUMBER OF ATOMS
6
ITEM: BOX BOUNDS pp pp ff
-1.0000000000000000e+01 1.0000000000000000e+01
-1.0000000000000000e+01 1.0000000000000000e+01
-2.0499999999999998e+00 2.0499999999999998e+00
ITEM: ATOMS id type x y z mux muy muz 
1 1 -2.21654 -5.02928 -0.0467562 -0 0 0 
2 1 0.124179 5.22759 0.0021432 -0 0 0 
3 1 2.05575 -4.28454 0.0259303 -0 0 0 
4 2 -1 -5 0 2 0 0 
5 2 0 5 0 0 2 0 
6 3 1 -5 0 0 0 0 
ITEM: TIMESTEP
21978
ITEM: NUMBER OF ATOMS
6
ITEM: BOX BOUNDS pp pp ff
-1.0000000000000000e+01 1.0000000000000000e+01
-1.0000000000000000e+01 1.0000000000000000e+01
-2.0499999999999998e+00 2.0499999999999998e+00
ITEM: ATOMS id type x y z mux muy muz 
1 1 -2.17333 -4.9843 0.0143186 0 -0 0 
2 1 0.0287957 5.21119 0.0238096 0 -0 0 
3 1 2.0748 -4.26612 -0.033982 0 -0 0 
4 2 -1 -5 0 2 0 0 
5 2 0 5 0 0 2 0 
6 3 1 -5 0 0 0 0 
ITEM: TIMESTEP
22311
ITEM: NUMBER OF ATOMS
6
ITEM: BOX BOUNDS pp pp ff
-1.0000000000000000e+01 1.0000000000000000e+01
-1.0000000000000000e+01 1.0000000000000000e+01
-2.0499999999999998e+00 2.0499999999999998e+00
ITEM: ATOMS id type x y z mux muy muz 
1 1 -2.01719 -5.01049 0.00406497 0 0 0 
2 1 0.03508 5.20543 0.0164357 0 0 0 
3 1 2.03602 -4.1666 -0.0580314 0 0 0 
4 2 -1 -5 0 2 0 0 
5 2 0 5 0 0 2 0 
6 3 1 -5 0 0 0 0 
ITEM: TIMESTEP
22644
ITEM: NUMBER OF ATOMS
6
ITEM: BOX BOUNDS pp pp ff
-1.0000000000000000e+01 1.0000000000000000e+01
-1.0000000000000000e+01 1.0000000000000000e+01
-2.0499999999999998e+00 2.0499999999999998e+00
ITEM: ATOMS id type x y z mux muy muz 
1 1 -1.97605 -4.97909 -0.0369592 -0 0 0 
2 1 0.0830001 5.16713 -0.0294942 -0 0 0 
3 1 2.08775 -4.26086 -0.0485796 -0 0 0 
4 2 -1 -5 0 2 0 0 
5 2 0 5 0 0 2 0 
6 3 1 -5 0 0 0 0 
ITEM: TIMESTEP
22977
ITEM: NUMBER OF ATOMS
6
ITEM: BOX BOUNDS pp pp ff
-1.0000000000000000e+01 1.0000000000000000e+01
-1.0000000000000000e+01 1.0000000000000000e+01
-2.0499999999999998e+00 2.0499999999999998e+00
ITEM: ATOMS id type x y z mux muy muz 
1 1 -2.01944 -5.09266 0.0229642 0 -0 0 
2 1 0.144812 5.11508 0.00161325 0 -0 0 
3 1 2.14283 -4.17836 0.0187336 0 -0 0 
4 2 -1 -5 0 2 0 0 
5 2 0 5 0 0 2 0 
6 3 1 -5 0 0 0 0 
ITEM: TIMESTEP
23310
ITEM: NUMBER OF ATOMS
6
ITEM: BOX BOUNDS pp pp ff
-1.0000000000000000e+01 1.0000000000000000e+01
-1.0000000000000000e+01 1.0000000000000000e+01
-2.0499999999999998e+00 2.0499999999999998e+00
ITEM: ATOMS id type x y z mux muy muz 
1 1 -2.04789 -5.09038 -0.00499455 0 0 0 
2 1 0.0626442 4.95017 0.026061 0 0 0 
3 1 2.06824 -4.22229 0.0526416 0 0 0 