ITEM: TIMESTEP
0
ITEM: NUMBER OF ATOMS
7
ITEM: BOX BOUNDS pp pp ff
-1.0000000000000000e+01 1.0000000000000000e+01
-1.0000000000000000e+01 1.0000000000000000e+01
-2.0499999999999998e+00 2.0499999999999998e+00
ITEM: ATOMS id type x y z mux muy muz 
1 1 -5 0 0 0.000267559 0 1.63832e-20 
2 1 0 5 0 0.000267559 0 1.63832e-20 
3 1 5 0 0 0.000267559 0 1.63832e-20 
4 2 -5 -3 0 3.34448e-05 0 2.0479e-21 
5 2 0 -3 0 3.34448e-05 0 2.0479e-21 
6 2 5 -3 0 3.34448e-05 0 2.0479e-21 
7 2 5 5 0 3.34448e-05 0 2.0479e-21 
ITEM: TIMESTEP
333
ITEM: NUMBER OF ATOMS
7
ITEM: BOX BOUNDS pp pp ff
-1.0000000000000000e+01 1.0000000000000000e+01
-1.0000000000000000e+01 1.0000000000000000e+01
-2.0499999999999998e+00 2.0499999999999998e+00
ITEM: ATOMS id type x y z mux muy muz 
1 1 -4.78841 0.0405824 0.0512142 -0.000128897 0.000234463 1.63832e-20 
2 1 -0.0053252 4.53058 0.0289785 -0.000128897 0.000234463 1.63832e-20 
3 1 4.55382 0.0801835 -0.0300291 -0.000128897 0.000234463 1.63832e-20 
4 2 -4.91482 -2.90185 -0.0122239 -1.61122e-05 2.93079e-05 2.0479e-21 
5 2 0.00194847 -2.93456 -0.0399289 -1.61122e-05 2.93079e-05 2.0479e-21 
6 2 5.02449 -2.84102 0.00259115 -1.61122e-05 2.93079e-05 2.0479e-21 
7 2 4.94856 4.83021 0.0575223 -1.61122e-05 2.93079e-05 2.0479e-21 
ITEM: TIMESTEP
666
ITEM: NUMBER OF ATOMS
7
ITEM: BOX BOUNDS pp pp ff
-1.0000000000000000e+01 1.0000000000000000e+01
-1.0000000000000000e+01 1.0000000000000000e+01
-2.0499999999999998e+00 2.0499999999999998e+00
ITEM: ATOMS id type x y z mux muy muz 
1 1 -4.53315 0.266157 -0.0244839 -0.000143365 -0.000225907 1.63832e-20 
2 1 0.067066 3.76464 -0.0242369 -0.000143365 -0.000225907 1.63832e-20 
3 1 4.0912 0.359507 -0.0342035 -0.000143365 -0.000225907 1.63832e-20 
4 2 -4.70388 -2.89077 -0.0106298 -1.79206e-05 -2.82384e-05 2.0479e-21 
5 2 0.0184377 -2.747 0.0131842 -1.79206e-05 -2.82384e-05 2.0479e-21 
6 2 5.13318 -2.56381 -0.0485174 -1.79206e-05 -2.82384e-05 2.0479e-21 
7 2 4.77525 4.56236 -0.0231867 -1.79206e-05 -2.82384e-05 2.0479e-21 
ITEM: TIMESTEP
999
ITEM: NUMBER OF ATOMS
7
ITEM: BOX BOUNDS pp pp ff
-1.0000000000000000e+01 1.0000000000000000e+01
-1.0000000000000000e+01 1.0000000000000000e+01
-2.0499999999999998e+00 2.0499999999999998e+00
ITEM: ATOMS id type x y z mux muy muz 
1 1 -3.88641 0.232809 0.0246123 0.000267031 -1.68001e-05 1.63832e-20 
2 1 0.171716 2.82198 -0.0414862 0.000267031 -1.68001e-05 1.63832e-20 
3 1 3.46906 0.848161 -0.0450985 0.000267031 -1.68001e-05 1.63832e-20 
4 2 -4.43695 -2.7967 -0.0227008 3.33788e-05 -2.10002e-06 2.0479e-21 
5 2 -0.00369706 -2.6069 0.0128765 3.33788e-05 -2.10002e-06 2.0479e-21 
6 2 4.94372 -1.82572 -0.0516547 3.33788e-05 -2.10002e-06 2.0479e-21 
7 2 4.63257 4.25617 -0.0224597 3.33788e-05 -2.10002e-06 2.0479e-21 
ITEM: TIMESTEP
1332
ITEM: NUMBER OF ATOMS
7
ITEM: BOX BOUNDS pp pp ff
-1.0000000000000000e+01 1.0000000000000000e+01
-1.0000000000000000e+01 1.0000000000000000e+01
-2.0499999999999998e+00 2.0499999999999998e+00
ITEM: ATOMS id type x y z mux muy muz 
1 1 -3.05293 -0.441204 0.0467804 -0.000113921 0.000242094 1.63832e-20 
2 1 -0.507406 2.57254 -0.0122387 -0.000113921 0.000242094 1.63832e-20 
3 1 3.75426 1.28327 -0.0555587 -0.000113921 0.000242094 1.63832e-20 
4 2 -4.27746 -3.1077 -0.0114292 -1.42401e-05 3.02618e-05 2.0479e-21 
5 2 -0.0873942 -2.42192 0.0394978 -1.42401e-05 3.02618e-05 2.0479e-21 
6 2 4.95628 -1.43984 -0.0421545 -1.42401e-05 3.02618e-05 2.0479e-21 
7 2 4.42076 4.1806 -0.0400192 -1.42401e-05 3.02618e-05 2.0479e-21 
ITEM: TIMESTEP
1665
ITEM: NUMBER OF ATOMS
7
ITEM: BOX BOUNDS pp pp ff
-1.0000000000000000e+01 1.0000000000000000e+01
-1.0000000000000000e+01 1.0000000000000000e+01
-2.0499999999999998e+00 2.0499999999999998e+00
ITEM: ATOMS id type x y z mux muy muz 
1 1 -2.8053 -0.830652 0.0107989 -0.000157267 -0.000216459 1.63832e-20 
2 1 -0.55257 2.23473 0.0201177 -0.000157267 -0.000216459 1.63832e-20 
3 1 3.30402 1.62745 0.00686277 -0.000157267 -0.000216459 1.63832e-20 
4 2 -4.32482 -3.39513 0.0156916 -1.96584e-05 -2.70574e-05 2.0479e-21 
5 2 -0.0962252 -2.20774 0.0189458 -1.96584e-05 -2.70574e-05 2.0479e-21 
6 2 5.02783 -1.10384 -0.000879032 -1.96584e-05 -2.70574e-05 2.0479e-21 
7 2 4.43208 4.42903 -0.0047771 -1.96584e-05 -2.70574e-05 2.0479e-21 
ITEM: TIMESTEP
1998
ITEM: NUMBER OF ATOMS
7
ITEM: BOX BOUNDS pp pp ff
-1.0000000000000000e+01 1.0000000000000000e+01
-1.0000000000000000e+01 1.0000000000000000e+01
-2.0499999999999998e+00 2.0499999999999998e+00
ITEM: ATOMS id type x y z mux muy muz 
1 1 -2.50715 -1.46263 0.0107771 0.000265449 -3.3534e-05 1.63832e-20 
2 1 -0.811335 2.38274 -0.0316074 0.000265449 -3.3534e-05 1.63832e-20 
3 1 3.3056 1.63714 -0.00333804 0.000265449 -3.3534e-05 1.63832e-20 
4 2 -4.38598 -3.79264 -0.0272718 3.31811e-05 -4.19175e-06 2.0479e-21 
5 2 0.336414 -2.18789 0.0410633 3.31811e-05 -4.19175e-06 2.0479e-21 
6 2 5.05702 -0.765933 0.0255046 3.31811e-05 -4.19175e-06 2.0479e-21 
7 2 4.17204 4.6738 -0.0303288 3.31811e-05 -4.19175e-06 2.0479e-21 
ITEM: TIMESTEP
2331
ITEM: NUMBER OF ATOMS
7
ITEM: BOX BOUNDS pp pp ff
-1.0000000000000000e+01 1.0000000000000000e+01
-1.0000000000000000e+01 1.0000000000000000e+01
-2.0499999999999998e+00 2.0499999999999998e+00
ITEM: ATOMS id type x y z mux muy muz 
1 1 -2.22665 -1.8485 -0.0263966 -9.84949e-05 0.00024877 1.63832e-20 
2 1 -1.06565 1.77175 -0.0101947 -9.84949e-05 0.00024877 1.63832e-20 
3 1 3.16871 2.02811 0.0512057 -9.84949e-05 0.00024877 1.63832e-20 
4 2 -4.38614 -3.9218 -0.0087272 -1.23119e-05 3.10962e-05 2.0479e-21 
5 2 0.809622 -1.80531 0.0333485 -1.23119e-05 3.10962e-05 2.0479e-21 
6 2 5.21452 -0.444466 0.0456441 -1.23119e-05 3.10962e-05 2.0479e-21 
7 2 3.98669 4.86943 0.052079 -1.23119e-05 3.10962e-05 2.0479e-21 
ITEM: TIMESTEP
2664
ITEM: NUMBER OF ATOMS
7
ITEM: BOX BOUNDS pp pp ff
-1.0000000000000000e+01 1.0000000000000000e+01
-1.0000000000000000e+01 1.0000000000000000e+01
-2.0499999999999998e+00 2.0499999999999998e+00
ITEM: ATOMS id type x y z mux muy muz 
1 1 -1.89318 -2.5109 0.00553221 -0.000170548 -0.000206157 1.63832e-20 
2 1 -0.931702 1.49038 -0.0141364 -0.000170548 -0.000206157 1.63832e-20 
3 1 2.86125 1.89142 0.00504367 -0.000170548 -0.000206157 1.63832e-20 
4 2 -4.41467 -4.0461 0.0481112 -2.13185e-05 -2.57697e-05 2.0479e-21 
5 2 0.863238 -1.45409 -0.0402033 -2.13185e-05 -2.57697e-05 2.0479e-21 
6 2 5.33005 -0.0649717 0.025513 -2.13185e-05 -2.57697e-05 2.0479e-21 
7 2 3.56873 5.01653 0.0394473 -2.13185e-05 -2.57697e-05 2.0479e-21 
ITEM: TIMESTEP
2997
ITEM: NUMBER OF ATOMS
7
ITEM: BOX BOUNDS pp pp ff
-1.0000000000000000e+01 1.0000000000000000e+01
-1.0000000000000000e+01 1.0000000000000000e+01
-2.0499999999999998e+00 2.0499999999999998e+00
ITEM: ATOMS id type x y z mux muy muz 
1 1 -1.3484 -2.95207 -0.0320779 0.000262819 -5.01355e-05 1.63832e-20 
2 1 -1.35281 1.11362 -0.0122482 0.000262819 -5.01355e-05 1.63832e-20 
3 1 2.90924 2.0006 -0.0294664 0.000262819 -5.01355e-05 1.63832e-20 
4 2 -4.24787 -4.02827 -0.0169896 3.28524e-05 -6.26693e-06 2.0479e-21 
5 2 0.936071 -0.964963 -0.0396136 3.28524e-05 -6.26693e-06 2.0479e-21 
6 2 5.30452 0.337894 -0.00288612 3.28524e-05 -6.26693e-06 2.0479e-21 
7 2 3.15697 5.08997 -0.0365332 3.28524e-05 -6.26693e-06 2.0479e-21 
ITEM: TIMESTEP
3330
ITEM: NUMBER OF ATOMS
7
ITEM: BOX BOUNDS pp pp ff
-1.0000000000000000e+01 1.0000000000000000e+01
-1.0000000000000000e+01 1.0000000000000000e+01
-2.0499999999999998e+00 2.0499999999999998e+00
ITEM: ATOMS id type x y z mux muy muz 
1 1 -1.03718 -2.86281 -0.0246551 -8.26801e-05 0.000254463 1.63832e-20 
2 1 -1.38094 0.893524 0.0351737 -8.26801e-05 0.000254463 1.63832e-20 
3 1 2.52743 1.93427 0.0411107 -8.26801e-05 0.000254463 1.63832e-20 
4 2 -3.85648 -4.02083 -0.0155677 -1.0335e-05 3.18079e-05 2.0479e-21 
5 2 1.11415 -0.807162 0.0277045 -1.0335e-05 3.18079e-05 2.0479e-21 
6 2 5.37274 0.532191 0.00418945 -1.0335e-05 3.18079e-05 2.0479e-21 
7 2 2.89882 4.8368 -0.0143889 -1.0335e-05 3.18079e-05 2.0479e-21 
ITEM: TIMESTEP
3663
ITEM: NUMBER OF ATOMS
7
ITEM: BOX BOUNDS pp pp ff
-1.0000000000000000e+01 1.0000000000000000e+01
-1.0000000000000000e+01 1.0000000000000000e+01
-2.0499999999999998e+00 2.0499999999999998e+00
ITEM: ATOMS id type x y z mux muy muz 
1 1 -0.852171 -3.10661 0.0333937 -0.000183156 -0.000195042 1.63832e-20 
2 1 -1.32635 0.973567 -0.00226173 -0.000183156 -0.000195042 1.63832e-20 
3 1 2.4115 1.84206 0.0204787 -0.000183156 -0.000195042 1.63832e-20 
4 2 -3.65559 -3.99725 0.0268284 -2.28946e-05 -2.43802e-05 2.0479e-21 
5 2 1.05362 -0.774223 -0.00713701 -2.28946e-05 -2.43802e-05 2.0479e-21 
6 2 5.23045 0.642511 0.056372 -2.28946e-05 -2.43802e-05 2.0479e-21 
7 2 2.59805 5.02492 -0.0164738 -2.28946e-05 -2.43802e-05 2.0479e-21 
ITEM: TIMESTEP
3996
ITEM: NUMBER OF ATOMS
7
ITEM: BOX BOUNDS pp pp ff
-1.0000000000000000e+01 1.0000000000000000e+01
-1.0000000000000000e+01 1.0000000000000000e+01
-2.0499999999999998e+00 2.0499999999999998e+00
ITEM: ATOMS id type x y z mux muy muz 
1 1 -0.488896 -3.18345 -0.0187748 0.000259153 -6.65391e-05 1.63832e-20 
2 1 -1.57277 0.626141 -0.0189652 0.000259153 -6.65391e-05 1.63832e-20 
3 1 2.53305 2.02613 -0.0108407 0.000259153 -6.65391e-05 1.63832e-20 
4 2 -3.55209 -4.13147 0.0045277 3.23941e-05 -8.31739e-06 2.0479e-21 
5 2 1.21856 -0.710047 0.0320885 3.23941e-05 -8.31739e-06 2.0479e-21 
6 2 5.20467 0.782949 0.00449778 3.23941e-05 -8.31739e-06 2.0479e-21 
7 2 2.2361 5.02986 -0.0195994 3.23941e-05 -8.31739e-06 2.0479e-21 
ITEM: TIMESTEP
4329
ITEM: NUMBER OF ATOMS
7
ITEM: BOX BOUNDS pp pp ff
-1.0000000000000000e+01 1.0000000000000000e+01
-1.0000000000000000e+01 1.0000000000000000e+01
-2.0499999999999998e+00 2.0499999999999998e+00
ITEM: ATOMS id type x y z mux muy muz 
1 1 -0.512189 -3.1648 0.0361725 -6.65391e-05 0.000259153 1.63832e-20 
2 1 -1.45088 0.490838 0.0144083 -6.65391e-05 0.000259153 1.63832e-20 
3 1 2.15213 2.14348 0.0426876 -6.65391e-05 0.000259153 1.63832e-20 
4 2 -3.28388 -4.33538 0.049457 -8.31739e-06 3.23941e-05 2.0479e-21 
5 2 1.25873 -0.777011 -0.00506243 -8.31739e-06 3.23941e-05 2.0479e-21 
6 2 5.20882 0.946902 -0.00872384 -8.31739e-06 3.23941e-05 2.0479e-21 
7 2 2.01544 5.07148 0.00921911 -8.31739e-06 3.23941e-05 2.0479e-21 
ITEM: TIMESTEP
4662
ITEM: NUMBER OF ATOMS
7
ITEM: BOX BOUNDS pp pp ff
-1.0000000000000000e+01 1.0000000000000000e+01
-1.0000000000000000e+01 1.0000000000000000e+01
-2.0499999999999998e+00 2.0499999999999998e+00
ITEM: ATOMS id type x y z mux muy muz 
1 1 -0.218291 -3.43236 0.0284485 -0.000195042 -0.000183156 1.63832e-20 
2 1 -1.50929 0.531697 0.0103227 -0.000195042 -0.000183156 1.63832e-20 
3 1 2.197 1.99779 0.0055721 -0.000195042 -0.000183156 1.63832e-20 
4 2 -3.01831 -4.40695 0.0101252 -2.43802e-05 -2.28946e-05 2.0479e-21 
5 2 1.16274 -0.736207 0.016084 -2.43802e-05 -2.28946e-05 2.0479e-21 
6 2 5.07741 1.08367 0.0140834 -2.43802e-05 -2.28946e-05 2.0479e-21 
7 2 1.73314 5.18383 0.0399973 -2.43802e-05 -2.28946e-05 2.0479e-21 
ITEM: TIMESTEP
4995
ITEM: NUMBER OF ATOMS
7
ITEM: BOX BOUNDS pp pp ff
-1.0000000000000000e+01 1.0000000000000000e+01
-1.0000000000000000e+01 1.0000000000000000e+01
-2.0499999999999998e+00 2.0499999999999998e+00
ITEM: ATOMS id type x y z mux muy muz 
1 1 0.0400613 -3.35146 -0.00205107 0.000254463 -8.26801e-05 1.63832e-20 
2 1 -1.61421 0.190746 0.0197442 0.000254463 -8.26801e-05 1.63832e-20 
3 1 2.15824 2.27144 0.0224755 0.000254463 -8.26801e-05 1.63832e-20 
4 2 -2.87612 -4.57192 0.0107974 3.18079e-05 -1.0335e-05 2.0479e-21 
5 2 1.30584 -0.654153 -0.00736617 3.18079e-05 -1.0335e-05 2.0479e-21 
6 2 4.90401 1.20486 0.0357573 3.18079e-05 -1.0335e-05 2.0479e-21 
7 2 1.45771 5.18396 0.00219914 3.18079e-05 -1.0335e-05 2.0479e-21 
ITEM: TIMESTEP
5328
ITEM: NUMBER OF ATOMS
7
ITEM: BOX BOUNDS pp pp ff
-1.0000000000000000e+01 1.0000000000000000e+01
-1.0000000000000000e+01 1.0000000000000000e+01
-2.0499999999999998e+00 2.0499999999999998e+00
ITEM: ATOMS id type x y z mux muy muz 
1 1 0.0909518 -3.41901 0.0124346 -5.01355e-05 0.000262819 1.63832e-20 
2 1 -1.42079 0.0696707 -0.0238585 -5.01355e-05 0.000262819 1.63832e-20 
3 1 1.80148 2.24027 -0.00284875 -5.01355e-05 0.000262819 1.63832e-20 
4 2 -2.62958 -4.64297 -0.0345478 -6.26693e-06 3.28524e-05 2.0479e-21 
5 2 1.42819 -0.773286 0.0343254 -6.26693e-06 3.28524e-05 2.0479e-21 
6 2 4.91665 1.48068 0.00491111 -6.26693e-06 3.28524e-05 2.0479e-21 
7 2 1.20114 5.23488 -0.0358811 -6.26693e-06 3.28524e-05 2.0479e-21 
ITEM: TIMESTEP
5661
ITEM: NUMBER OF ATOMS
7
ITEM: BOX BOUNDS pp pp ff
-1.0000000000000000e+01 1.0000000000000000e+01
-1.0000000000000000e+01 1.0000000000000000e+01
-2.0499999999999998e+00 2.0499999999999998e+00
ITEM: ATOMS id type x y z mux muy muz 
1 1 0.508706 -3.55636 -0.0192896 -0.000206157 -0.000170548 1.63832e-20 
2 1 -1.52589 -0.0130578 -0.0346178 -0.000206157 -0.000170548 1.63832e-20 
3 1 1.88047 2.24044 -0.0255914 -0.000206157 -0.000170548 1.63832e-20 
4 2 -2.36382 -4.53003 -0.0485221 -2.57697e-05 -2.13185e-05 2.0479e-21 
5 2 1.38122 -0.636283 -0.0513664 -2.57697e-05 -2.13185e-05 2.0479e-21 
6 2 4.82261 1.74045 0.0249524 -2.57697e-05 -2.13185e-05 2.0479e-21 
7 2 0.893675 5.29611 -0.0592326 -2.57697e-05 -2.13185e-05 2.0479e-21 
ITEM: TIMESTEP
5994
ITEM: NUMBER OF ATOMS
7
ITEM: BOX BOUNDS pp pp ff
-1.0000000000000000e+01 1.0000000000000000e+01
-1.0000000000000000e+01 1.0000000000000000e+01
-2.0499999999999998e+00 2.0499999999999998e+00
ITEM: ATOMS id type x y z mux muy muz 
1 1 0.665632 -3.53058 0.00943529 0.00024877 -9.84949e-05 1.63832e-20 
2 1 -1.45323 -0.325091 -0.0325851 0.00024877 -9.84949e-05 1.63832e-20 
3 1 1.75578 2.37224 0.00932368 0.00024877 -9.84949e-05 1.63832e-20 
4 2 -2.27501 -4.62254 -0.00135456 3.10962e-05 -1.23119e-05 2.0479e-21 
5 2 1.55833 -0.685245 -0.0174618 3.10962e-05 -1.23119e-05 2.0479e-21 
6 2 4.80367 1.85188 0.0511685 3.10962e-05 -1.23119e-05 2.0479e-21 
7 2 0.691123 5.13209 0.0471436 3.10962e-05 -1.23119e-05 2.0479e-21 
ITEM: TIMESTEP
6327
ITEM: NUMBER OF ATOMS
7
ITEM: BOX BOUNDS pp pp ff
-1.0000000000000000e+01 1.0000000000000000e+01
-1.0000000000000000e+01 1.0000000000000000e+01
-2.0499999999999998e+00 2.0499999999999998e+00
ITEM: ATOMS id type x y z mux muy muz 
1 1 0.750148 -3.60318 0.0228177 -3.3534e-05 0.000265449 1.63832e-20 
2 1 -1.332 -0.32099 -0.00673249 -3.3534e-05 0.000265449 1.63832e-20 
3 1 1.57428 2.20335 0.0121204 -3.3534e-05 0.000265449 1.63832e-20 
4 2 -2.02679 -4.69754 -0.0155495 -4.19175e-06 3.31811e-05 2.0479e-21 
5 2 1.60609 -0.797231 0.0213359 -4.19175e-06 3.31811e-05 2.0479e-21 
6 2 4.7296 2.13438 -0.00951065 -4.19175e-06 3.31811e-05 2.0479e-21 
7 2 0.514242 5.08517 -0.0290554 -4.19175e-06 3.31811e-05 2.0479e-21 
ITEM: TIMESTEP
6660
ITEM: NUMBER OF ATOMS
7
ITEM: BOX BOUNDS pp pp ff
-1.0000000000000000e+01 1.0000000000000000e+01
-1.0000000000000000e+01 1.0000000000000000e+01
-2.0499999999999998e+00 2.0499999999999998e+00
ITEM: ATOMS id type x y z mux muy muz 
1 1 1.10284 -3.70485 -0.0443575 -0.000216459 -0.000157267 1.63832e-20 
2 1 -1.41162 -0.561822 -0.042098 -0.000216459 -0.000157267 1.63832e-20 
3 1 1.6676 2.25599 0.0270412 -0.000216459 -0.000157267 1.63832e-20 
4 2 -1.77742 -4.54313 -0.00230477 -2.70574e-05 -1.96584e-05 2.0479e-21 
5 2 1.57168 -0.695837 -0.0190771 -2.70574e-05 -1.96584e-05 2.0479e-21 
6 2 4.61602 2.19767 0.0147844 -2.70574e-05 -1.96584e-05 2.0479e-21 
7 2 0.134254 5.02183 0.0392315 -2.70574e-05 -1.96584e-05 2.0479e-21 
ITEM: TIMESTEP
6993
ITEM: NUMBER OF ATOMS
7
ITEM: BOX BOUNDS pp pp ff
-1.0000000000000000e+01 1.0000000000000000e+01
-1.0000000000000000e+01 1.0000000000000000e+01
-2.0499999999999998e+00 2.0499999999999998e+00
ITEM: ATOMS id type x y z mux muy muz 
1 1 1.32078 -3.68384 -0.0179803 0.000242094 -0.000113921 1.63832e-20 
2 1 -1.24251 -0.876768 0.0062782 0.000242094 -0.000113921 1.63832e-20 
3 1 1.3399 2.30713 0.0198886 0.000242094 -0.000113921 1.63832e-20 
4 2 -1.647 -4.39658 0.0127006 3.02618e-05 -1.42401e-05 2.0479e-21 
5 2 1.76379 -0.726165 0.0586034 3.02618e-05 -1.42401e-05 2.0479e-21 
6 2 4.5542 2.39918 0.0329074 3.02618e-05 -1.42401e-05 2.0479e-21 
7 2 -0.164526 4.83235 0.0439339 3.02618e-05 -1.42401e-05 2.0479e-21 
ITEM: TIMESTEP
7326
ITEM: NUMBER OF ATOMS
7
ITEM: BOX BOUNDS pp pp ff
-1.0000000000000000e+01 1.0000000000000000e+01
-1.0000000000000000e+01 1.0000000000000000e+01
-2.0499999999999998e+00 2.0499999999999998e+00
ITEM: ATOMS id type x y z mux muy muz 
1 1 1.56084 -3.74074 0.0309231 -1.68001e-05 0.000267031 1.63832e-20 
2 1 -1.20415 -0.850765 0.0359681 -1.68001e-05 0.000267031 1.63832e-20 
3 1 1.22519 2.1042 0.0300561 -1.68001e-05 0.000267031 1.63832e-20 
4 2 -1.40913 -4.07716 0.00619648 -2.10002e-06 3.33788e-05 2.0479e-21 
5 2 1.75842 -0.806396 0.0148145 -2.10002e-06 3.33788e-05 2.0479e-21 
6 2 4.27588 2.48049 -0.0131971 -2.10002e-06 3.33788e-05 2.0479e-21 
7 2 -0.408643 4.81902 0.0460237 -2.10002e-06 3.33788e-05 2.0479e-21 
ITEM: TIMESTEP
7659
ITEM: NUMBER OF ATOMS
7
ITEM: BOX BOUNDS pp pp ff
-1.0000000000000000e+01 1.0000000000000000e+01
-1.0000000000000000e+01 1.0000000000000000e+01
-2.0499999999999998e+00 2.0499999999999998e+00
ITEM: ATOMS id type x y z mux muy muz 
1 1 1.71989 -3.74688 -0.0405433 -0.000225907 -0.000143365 1.63832e-20 
2 1 -1.29573 -1.13442 -0.00769427 -0.000225907 -0.000143365 1.63832e-20 
3 1 1.31759 2.21985 -0.0461918 -0.000225907 -0.000143365 1.63832e-20 
4 2 -1.21731 -4.2174 -0.00225721 -2.82384e-05 -1.79206e-05 2.0479e-21 
5 2 1.72616 -0.757414 -0.0484981 -2.82384e-05 -1.79206e-05 2.0479e-21 
6 2 4.20774 2.57321 0.0120264 -2.82384e-05 -1.79206e-05 2.0479e-21 
7 2 -0.583944 4.65979 0.0341861 -2.82384e-05 -1.79206e-05 2.0479e-21 
ITEM: TIMESTEP
7992
ITEM: NUMBER OF ATOMS
7
ITEM: BOX BOUNDS pp pp ff
-1.0000000000000000e+01 1.0000000000000000e+01
-1.0000000000000000e+01 1.0000000000000000e+01
-2.0499999999999998e+00 2.0499999999999998e+00
ITEM: ATOMS id type x y z mux muy muz 
1 1 1.79395 -3.74712 0.0039674 0.000234463 -0.000128897 1.63832e-20 
2 1 -1.09279 -1.29294 -0.0291782 0.000234463 -0.000128897 1.63832e-20 
3 1 0.969738 2.19278 -0.0391582 0.000234463 -0.000128897 1.63832e-20 
4 2 -1.16408 -4.25097 0.0187296 2.93079e-05 -1.61122e-05 2.0479e-21 
5 2 1.86728 -0.747716 -0.0335613 2.93079e-05 -1.61122e-05 2.0479e-21 
6 2 4.12925 2.75962 -0.0170792 2.93079e-05 -1.61122e-05 2.0479e-21 
7 2 -0.751911 4.54854 0.0507415 2.93079e-05 -1.61122e-05 2.0479e-21 
ITEM: TIMESTEP
8325
ITEM: NUMBER OF ATOMS
7
ITEM: BOX BOUNDS pp pp ff
-1.0000000000000000e+01 1.0000000000000000e+01
-1.0000000000000000e+01 1.0000000000000000e+01
-2.0499999999999998e+00 2.0499999999999998e+00
ITEM: ATOMS id type x y z mux muy muz 
1 1 1.9482 -3.69269 0.0247983 3.92005e-17 0.000267559 1.63832e-20 
2 1 -1.10319 -1.02608 -0.0135287 3.92005e-17 0.000267559 1.63832e-20 
3 1 1.07571 2.10055 -0.0495654 3.92005e-17 0.000267559 1.63832e-20 
4 2 -0.953797 -4.3404 -0.000244532 4.90006e-18 3.34448e-05 2.0479e-21 
5 2 1.85991 -0.74312 0.0308732 4.90006e-18 3.34448e-05 2.0479e-21 
6 2 4.01797 2.89374 -0.0157855 4.90006e-18 3.34448e-05 2.0479e-21 
7 2 -1.02694 4.54863 -0.0159408 4.90006e-18 3.34448e-05 2.0479e-21 
ITEM: TIMESTEP
8658
ITEM: NUMBER OF ATOMS
7
ITEM: BOX BOUNDS pp pp ff
-1.0000000000000000e+01 1.0000000000000000e+01
-1.0000000000000000e+01 1.0000000000000000e+01
-2.0499999999999998e+00 2.0499999999999998e+00
ITEM: ATOMS id type x y z mux muy muz 
1 1 2.10818 -3.54929 -0.0608876 -0.000234463 -0.000128897 1.63832e-20 
2 1 -1.15506 -1.30388 -0.0159527 -0.000234463 -0.000128897 1.63832e-20 
3 1 0.951548 2.37044 -0.0318658 -0.000234463 -0.000128897 1.63832e-20 
4 2 -0.746133 -4.32751 -0.0472143 -2.93079e-05 -1.61122e-05 2.0479e-21 
5 2 1.83127 -0.574937 0.0162197 -2.93079e-05 -1.61122e-05 2.0479e-21 
6 2 3.82721 2.94782 -0.0185366 -2.93079e-05 -1.61122e-05 2.0479e-21 
7 2 -1.25281 4.46056 -0.00197505 -2.93079e-05 -1.61122e-05 2.0479e-21 
ITEM: TIMESTEP
8991
ITEM: NUMBER OF ATOMS
7
ITEM: BOX BOUNDS pp pp ff
-1.0000000000000000e+01 1.0000000000000000e+01
-1.0000000000000000e+01 1.0000000000000000e+01
-2.0499999999999998e+00 2.0499999999999998e+00
ITEM: ATOMS id type x y z mux muy muz 
1 1 2.1464 -3.53984 -0.0212091 0.000225907 -0.000143365 1.63832e-20 
2 1 -0.983505 -1.36534 0.0130203 0.000225907 -0.000143365 1.63832e-20 
3 1 0.703592 2.24304 -0.0312008 0.000225907 -0.000143365 1.63832e-20 
4 2 -0.737827 -4.31627 -0.0278574 2.82384e-05 -1.79206e-05 2.0479e-21 
5 2 1.90194 -0.564255 -0.014105 2.82384e-05 -1.79206e-05 2.0479e-21 
6 2 3.81278 3.11762 -0.0449241 2.82384e-05 -1.79206e-05 2.0479e-21 
7 2 -1.38681 4.28772 -0.0275977 2.82384e-05 -1.79206e-05 2.0479e-21 
ITEM: TIMESTEP
9324
ITEM: NUMBER OF ATOMS
7
ITEM: BOX BOUNDS pp pp ff
-1.0000000000000000e+01 1.0000000000000000e+01
-1.0000000000000000e+01 1.0000000000000000e+01
-2.0499999999999998e+00 2.0499999999999998e+00
ITEM: ATOMS id type x y z mux muy muz 
1 1 2.33271 -3.49057 0.0125938 1.68001e-05 0.000267031 1.63832e-20 
2 1 -1.01138 -1.19217 -0.038647 1.68001e-05 0.000267031 1.63832e-20 
3 1 0.860236 2.16394 0.00964957 1.68001e-05 0.000267031 1.63832e-20 
4 2 -0.485857 -4.48852 -0.00664561 2.10002e-06 3.33788e-05 2.0479e-21 
5 2 1.87917 -0.57944 -0.021807 2.10002e-06 3.33788e-05 2.0479e-21 
6 2 3.69039 3.24418 -0.00639956 2.10002e-06 3.33788e-05 2.0479e-21 
7 2 -1.68388 4.1794 0.0519827 2.10002e-06 3.33788e-05 2.0479e-21 
ITEM: TIMESTEP
9657
ITEM: NUMBER OF ATOMS
7
ITEM: BOX BOUNDS pp pp ff
-1.0000000000000000e+01 1.0000000000000000e+01
-1.0000000000000000e+01 1.0000000000000000e+01
-2.0499999999999998e+00 2.0499999999999998e+00
ITEM: ATOMS id type x y z mux muy muz 
1 1 2.56928 -3.39824 0.0246957 -0.000242094 -0.000113921 1.63832e-20 
2 1 -0.880636 -1.5709 -0.0117745 -0.000242094 -0.000113921 1.63832e-20 
3 1 0.700339 2.33168 -0.0158972 -0.000242094 -0.000113921 1.63832e-20 
4 2 -0.171926 -4.51544 0.00561847 -3.02618e-05 -1.42401e-05 2.0479e-21 
5 2 1.94588 -0.479899 -0.00830423 -3.02618e-05 -1.42401e-05 2.0479e-21 
6 2 3.49567 3.36132 -0.0120456 -3.02618e-05 -1.42401e-05 2.0479e-21 
7 2 -1.85577 3.92297 -0.0309244 -3.02618e-05 -1.42401e-05 2.0479e-21 
ITEM: TIMESTEP
9990
ITEM: NUMBER OF ATOMS
7
ITEM: BOX BOUNDS pp pp ff
-1.0000000000000000e+01 1.0000000000000000e+01
-1.0000000000000000e+01 1.0000000000000000e+01
-2.0499999999999998e+00 2.0499999999999998e+00
ITEM: ATOMS id type x y z mux muy muz 
1 1 2.59239 -3.32646 -0.00204626 0.000216459 -0.000157267 1.63832e-20 
2 1 -0.751198 -1.52078 0.0274368 0.000216459 -0.000157267 1.63832e-20 
3 1 0.482518 2.21263 0.0181205 0.000216459 -0.000157267 1.63832e-20 
4 2 -0.156741 -4.51743 0.0330639 2.70574e-05 -1.96584e-05 2.0479e-21 
5 2 2.00894 -0.399402 -0.00194703 2.70574e-05 -1.96584e-05 2.0479e-21 
6 2 3.38515 3.55599 0.0135535 2.70574e-05 -1.96584e-05 2.0479e-21 
7 2 -1.89909 3.91735 0.0223281 2.70574e-05 -1.96584e-05 2.0479e-21 
ITEM: TIMESTEP
10323
ITEM: NUMBER OF ATOMS
7
ITEM: BOX BOUNDS pp pp ff
-1.0000000000000000e+01 1.0000000000000000e+01
-1.0000000000000000e+01 1.0000000000000000e+01
-2.0499999999999998e+00 2.0499999999999998e+00
ITEM: ATOMS id type x y z mux muy muz 
1 1 2.82759 -3.19635 -0.0175439 3.3534e-05 0.000265449 1.63832e-20 
2 1 -0.814142 -1.42464 0.00448647 3.3534e-05 0.000265449 1.63832e-20 
3 1 0.601262 2.21874 0.00979374 3.3534e-05 0.000265449 1.63832e-20 
4 2 0.176424 -4.56641 -0.0328599 4.19175e-06 3.31811e-05 2.0479e-21 
5 2 1.96155 -0.365229 0.0013462 4.19175e-06 3.31811e-05 2.0479e-21 
6 2 3.262 3.60712 -0.00718414 4.19175e-06 3.31811e-05 2.0479e-21 
7 2 -2.16366 3.83192 0.0413025 4.19175e-06 3.31811e-05 2.0479e-21 
ITEM: TIMESTEP
10656
ITEM: NUMBER OF ATOMS
7
ITEM: BOX BOUNDS pp pp ff
-1.0000000000000000e+01 1.0000000000000000e+01
-1.0000000000000000e+01 1.0000000000000000e+01
-2.0499999999999998e+00 2.0499999999999998e+00
ITEM: ATOMS id type x y z mux muy muz 
1 1 2.97438 -3.11074 -0.0446393 -0.00024877 -9.84949e-05 1.63832e-20 
2 1 -0.663894 -1.72216 -0.0445077 -0.00024877 -9.84949e-05 1.63832e-20 
3 1 0.348138 2.35319 -0.0310137 -0.00024877 -9.84949e-05 1.63832e-20 
4 2 0.357128 -4.52677 -0.0119268 -3.10962e-05 -1.23119e-05 2.0479e-21 
5 2 2.02657 -0.276807 -0.0364165 -3.10962e-05 -1.23119e-05 2.0479e-21 
6 2 3.04025 3.70543 -0.00622061 -3.10962e-05 -1.23119e-05 2.0479e-21 
7 2 -2.32556 3.67415 0.0194119 -3.10962e-05 -1.23119e-05 2.0479e-21 
ITEM: TIMESTEP
10989
ITEM: NUMBER OF ATOMS
7
ITEM: BOX BOUNDS pp pp ff
-1.0000000000000000e+01 1.0000000000000000e+01
-1.0000000000000000e+01 1.0000000000000000e+01
-2.0499999999999998e+00 2.0499999999999998e+00
ITEM: ATOMS id type x y z mux muy muz 
1 1 3.09411 -3.08014 -0.0361487 0.000206157 -0.000170548 1.63832e-20 
2 1 -0.483678 -1.70728 -0.00647699 0.000206157 -0.000170548 1.63832e-20 
3 1 0.32145 2.09855 -0.0510045 0.000206157 -0.000170548 1.63832e-20 
4 2 0.544247 -4.63403 -0.000245188 2.57697e-05 -2.13185e-05 2.0479e-21 
5 2 2.12609 -0.294759 -0.0462669 2.57697e-05 -2.13185e-05 2.0479e-21 
6 2 2.95518 3.84455 -0.00924985 2.57697e-05 -2.13185e-05 2.0479e-21 
7 2 -2.45218 3.43914 -0.0473513 2.57697e-05 -2.13185e-05 2.0479e-21 
ITEM: TIMESTEP
11322
ITEM: NUMBER OF ATOMS
7
ITEM: BOX BOUNDS pp pp ff
-1.0000000000000000e+01 1.0000000000000000e+01
-1.0000000000000000e+01 1.0000000000000000e+01
-2.0499999999999998e+00 2.0499999999999998e+00
ITEM: ATOMS id type x y z mux muy muz 
1 1 3.2031 -2.98168 -0.0161957 5.01355e-05 0.000262819 1.63832e-20 
2 1 -0.623607 -1.71645 -0.0123661 5.01355e-05 0.000262819 1.63832e-20 
3 1 0.364205 2.19368 0.00382133 5.01355e-05 0.000262819 1.63832e-20 
4 2 0.721375 -4.64403 0.0040724 6.26693e-06 3.28524e-05 2.0479e-21 
5 2 1.98003 -0.254603 -0.00360182 6.26693e-06 3.28524e-05 2.0479e-21 
6 2 2.76675 3.91867 0.0264115 6.26693e-06 3.28524e-05 2.0479e-21 
7 2 -2.60438 3.26262 -0.00897565 6.26693e-06 3.28524e-05 2.0479e-21 
ITEM: TIMESTEP
11655
ITEM: NUMBER OF ATOMS
7
ITEM: BOX BOUNDS pp pp ff
-1.0000000000000000e+01 1.0000000000000000e+01
-1.0000000000000000e+01 1.0000000000000000e+01
-2.0499999999999998e+00 2.0499999999999998e+00
ITEM: ATOMS id type x y z mux muy muz 
1 1 3.34541 -2.89386 0.00917361 -0.000254463 -8.26801e-05 1.63832e-20 
2 1 -0.400156 -2.0195 -0.0301656 -0.000254463 -8.26801e-05 1.63832e-20 
3 1 0.0510183 2.12882 -0.0174417 -0.000254463 -8.26801e-05 1.63832e-20 
4 2 0.942324 -4.66758 -0.00746632 -3.18079e-05 -1.0335e-05 2.0479e-21 
5 2 2.05513 -0.198045 -0.04069 -3.18079e-05 -1.0335e-05 2.0479e-21 
6 2 2.65813 3.87709 0.0370169 -3.18079e-05 -1.0335e-05 2.0479e-21 
7 2 -2.75597 3.05637 0.0119379 -3.18079e-05 -1.0335e-05 2.0479e-21 
ITEM: TIMESTEP
11988
ITEM: NUMBER OF ATOMS
7
ITEM: BOX BOUNDS pp pp ff
-1.0000000000000000e+01 1.0000000000000000e+01
-1.0000000000000000e+01 1.0000000000000000e+01
-2.0499999999999998e+00 2.0499999999999998e+00
ITEM: ATOMS id type x y z mux muy muz 
1 1 3.44982 -2.87508 -0.0158134 0.000195042 -0.000183156 1.63832e-20 
2 1 -0.336925 -1.89133 -0.0395548 0.000195042 -0.000183156 1.63832e-20 
3 1 0.102133 1.93257 0.00278206 0.000195042 -0.000183156 1.63832e-20 
4 2 1.07666 -4.68979 -0.00737845 2.43802e-05 -2.28946e-05 2.0479e-21 
5 2 2.11903 -0.246578 0.0292258 2.43802e-05 -2.28946e-05 2.0479e-21 
6 2 2.31577 4.05457 -0.0227444 2.43802e-05 -2.28946e-05 2.0479e-21 
7 2 -2.87136 2.87856 0.0269269 2.43802e-05 -2.28946e-05 2.0479e-21 
ITEM: TIMESTEP
12321
ITEM: NUMBER OF ATOMS
7
ITEM: BOX BOUNDS pp pp ff
-1.0000000000000000e+01 1.0000000000000000e+01
-1.0000000000000000e+01 1.0000000000000000e+01
-2.0499999999999998e+00 2.0499999999999998e+00
ITEM: ATOMS id type x y z mux muy muz 
1 1 3.69342 -2.65865 -0.0176801 6.65391e-05 0.000259153 1.63832e-20 
2 1 -0.317594 -2.04633 -0.0111979 6.65391e-05 0.000259153 1.63832e-20 
3 1 0.0773884 2.07217 0.0046623 6.65391e-05 0.000259153 1.63832e-20 
4 2 1.47423 -4.64761 0.0198136 8.31739e-06 3.23941e-05 2.0479e-21 
5 2 2.0819 -0.124274 -0.0227197 8.31739e-06 3.23941e-05 2.0479e-21 
6 2 2.29375 4.03616 0.035409 8.31739e-06 3.23941e-05 2.0479e-21 
7 2 -2.94228 2.81466 0.0253672 8.31739e-06 3.23941e-05 2.0479e-21 
ITEM: TIMESTEP
12654
ITEM: NUMBER OF ATOMS
7
ITEM: BOX BOUNDS pp pp ff
-1.0000000000000000e+01 1.0000000000000000e+01
-1.0000000000000000e+01 1.0000000000000000e+01
-2.0499999999999998e+00 2.0499999999999998e+00
ITEM: ATOMS id type x y z mux muy muz 
1 1 3.79828 -2.49122 0.0432139 -0.000259153 -6.65391e-05 1.63832e-20 
2 1 -0.0106023 -2.15261 0.0384694 -0.000259153 -6.65391e-05 1.63832e-20 
3 1 -0.230306 1.94442 0.0551722 -0.000259153 -6.65391e-05 1.63832e-20 
4 2 1.66683 -4.57728 0.0413859 -3.23941e-05 -8.31739e-06 2.0479e-21 
5 2 2.12725 -0.0112842 0.0398264 -3.23941e-05 -8.31739e-06 2.0479e-21 
6 2 2.05664 4.13219 0.0113028 -3.23941e-05 -8.31739e-06 2.0479e-21 
7 2 -3.06682 2.65655 0.0312303 -3.23941e-05 -8.31739e-06 2.0479e-21 
ITEM: TIMESTEP
12987
ITEM: NUMBER OF ATOMS
7
ITEM: BOX BOUNDS pp pp ff
-1.0000000000000000e+01 1.0000000000000000e+01
-1.0000000000000000e+01 1.0000000000000000e+01
-2.0499999999999998e+00 2.0499999999999998e+00
ITEM: ATOMS id type x y z mux muy muz 
1 1 3.84219 -2.4155 0.0265586 0.000183156 -0.000195042 1.63832e-20 
2 1 -0.0977698 -1.96344 0.0290726 0.000183156 -0.000195042 1.63832e-20 
3 1 -0.140697 1.87218 -0.0145755 0.000183156 -0.000195042 1.63832e-20 
4 2 1.80729 -4.60552 -0.0364345 2.28946e-05 -2.43802e-05 2.0479e-21 
5 2 2.13774 -0.0145317 -0.0104537 2.28946e-05 -2.43802e-05 2.0479e-21 
6 2 1.83167 4.22529 0.00427817 2.28946e-05 -2.43802e-05 2.0479e-21 
7 2 -3.19691 2.446 -0.026303 2.28946e-05 -2.43802e-05 2.0479e-21 
ITEM: TIMESTEP
13320
ITEM: NUMBER OF ATOMS
7
ITEM: BOX BOUNDS pp pp ff
-1.0000000000000000e+01 1.0000000000000000e+01
-1.0000000000000000e+01 1.0000000000000000e+01
-2.0499999999999998e+00 2.0499999999999998e+00
ITEM: ATOMS id type x y z mux muy muz 
1 1 4.00282 -2.28219 -0.0365453 8.26801e-05 0.000254463 1.63832e-20 
2 1 0.0225122 -2.19604 -0.0265543 8.26801e-05 0.000254463 1.63832e-20 
3 1 -0.267102 2.02812 -0.013682 8.26801e-05 0.000254463 1.63832e-20 
4 2 2.05441 -4.50425 -0.0018881 1.0335e-05 3.18079e-05 2.0479e-21 
5 2 2.08298 0.0409864 -0.0154703 1.0335e-05 3.18079e-05 2.0479e-21 
6 2 1.66083 4.24002 -0.0424476 1.0335e-05 3.18079e-05 2.0479e-21 
7 2 -3.33468 2.09144 -0.0554775 1.0335e-05 3.18079e-05 2.0479e-21 
ITEM: TIMESTEP
13653