ITEM: TIMESTEP
0
ITEM: NUMBER OF ATOMS
7
ITEM: BOX BOUNDS pp pp ff
-1.0000000000000000e+01 1.0000000000000000e+01
-1.0000000000000000e+01 1.0000000000000000e+01
-2.0499999999999998e+00 2.0499999999999998e+00
ITEM: ATOMS id type x y z mux muy muz 
1 1 -5 0 0 0.000267559 0 1.63832e-20 
2 1 0 5 0 0.000267559 0 1.63832e-20 
3 1 5 0 0 0.000267559 0 1.63832e-20 
4 2 -5 -3 0 3.34448e-05 0 2.0479e-21 
5 2 0 -3 0 3.34448e-05 0 2.0479e-21 
6 2 5 -3 0 3.34448e-05 0 2.0479e-21 
7 2 5 5 0 3.34448e-05 0 2.0479e-21 
ITEM: TIMESTEP
333
ITEM: NUMBER OF ATOMS
7
ITEM: BOX BOUNDS pp pp ff
-1.0000000000000000e+01 1.0000000000000000e+01
-1.0000000000000000e+01 1.0000000000000000e+01
-2.0499999999999998e+00 2.0499999999999998e+00
ITEM: ATOMS id type x y z mux muy muz 
1 1 -4.76276 0.0530026 -0.0518633 -0.000128897 0.000234463 1.63832e-20 
2 1 0.17409 4.57698 -0.0537256 -0.000128897 0.000234463 1.63832e-20 
3 1 4.62599 0.13203 0.00646359 -0.000128897 0.000234463 1.63832e-20 
4 2 -4.89011 -2.87026 0.0149492 -1.61122e-05 2.93079e-05 2.0479e-21 
5 2 0.0358954 -2.86962 -0.0225084 -1.61122e-05 2.93079e-05 2.0479e-21 
6 2 5.03958 -2.77597 -0.0394163 -1.61122e-05 2.93079e-05 2.0479e-21 
7 2 4.82097 4.89541 0.0340846 -1.61122e-05 2.93079e-05 2.0479e-21 
ITEM: TIMESTEP
666
ITEM: NUMBER OF ATOMS
7
ITEM: BOX BOUNDS pp pp ff
-1.0000000000000000e+01 1.0000000000000000e+01
-1.0000000000000000e+01 1.0000000000000000e+01
-2.0499999999999998e+00 2.0499999999999998e+00
ITEM: ATOMS id type x y z mux muy muz 
1 1 -4.43198 0.211799 -0.0130512 -0.000143365 -0.000225907 1.63832e-20 
2 1 0.294695 3.84274 -0.00909819 -0.000143365 -0.000225907 1.63832e-20 
3 1 3.92044 0.467216 -0.0042603 -0.000143365 -0.000225907 1.63832e-20 
4 2 -4.69615 -2.98178 0.0155631 -1.79206e-05 -2.82384e-05 2.0479e-21 
5 2 -0.128719 -2.79675 0.0469865 -1.79206e-05 -2.82384e-05 2.0479e-21 
6 2 5.15259 -2.39515 -0.0435248 -1.79206e-05 -2.82384e-05 2.0479e-21 
7 2 4.61302 4.59634 -0.0233056 -1.79206e-05 -2.82384e-05 2.0479e-21 
ITEM: TIMESTEP
999
ITEM: NUMBER OF ATOMS
7
ITEM: BOX BOUNDS pp pp ff
-1.0000000000000000e+01 1.0000000000000000e+01
-1.0000000000000000e+01 1.0000000000000000e+01
-2.0499999999999998e+00 2.0499999999999998e+00
ITEM: ATOMS id type x y z mux muy muz 
1 1 -4.08258 0.228175 0.0352383 0.000267031 -1.68001e-05 1.63832e-20 
2 1 0.324875 2.84099 -0.0304468 0.000267031 -1.68001e-05 1.63832e-20 
3 1 3.71236 1.00861 0.0126548 0.000267031 -1.68001e-05 1.63832e-20 
4 2 -4.424 -2.84854 -0.000374728 3.33788e-05 -2.10002e-06 2.0479e-21 
5 2 -0.0936429 -2.63015 -0.00747102 3.33788e-05 -2.10002e-06 2.0479e-21 
6 2 5.08283 -1.71039 0.0226099 3.33788e-05 -2.10002e-06 2.0479e-21 
7 2 4.31534 3.9815 0.0342871 3.33788e-05 -2.10002e-06 2.0479e-21 
ITEM: TIMESTEP
1332
ITEM: NUMBER OF ATOMS
7
ITEM: BOX BOUNDS pp pp ff
-1.0000000000000000e+01 1.0000000000000000e+01
-1.0000000000000000e+01 1.0000000000000000e+01
-2.0499999999999998e+00 2.0499999999999998e+00
ITEM: ATOMS id type x y z mux muy muz 
1 1 -3.10903 -0.443211 -0.0433289 -0.000113921 0.000242094 1.63832e-20 
2 1 -0.524848 2.5406 -0.0132501 -0.000113921 0.000242094 1.63832e-20 
3 1 3.72293 1.31191 -0.015841 -0.000113921 0.000242094 1.63832e-20 
4 2 -4.24033 -3.15908 0.00423778 -1.42401e-05 3.02618e-05 2.0479e-21 
5 2 -0.370176 -2.41956 -0.0310007 -1.42401e-05 3.02618e-05 2.0479e-21 
6 2 5.085 -1.36241 0.0277973 -1.42401e-05 3.02618e-05 2.0479e-21 
7 2 4.24751 4.24007 -0.010792 -1.42401e-05 3.02618e-05 2.0479e-21 
ITEM: TIMESTEP
1665
ITEM: NUMBER OF ATOMS
7
ITEM: BOX BOUNDS pp pp ff
-1.0000000000000000e+01 1.0000000000000000e+01
-1.0000000000000000e+01 1.0000000000000000e+01
-2.0499999999999998e+00 2.0499999999999998e+00
ITEM: ATOMS id type x y z mux muy muz 
1 1 -2.83423 -0.809968 0.0207823 -0.000157267 -0.000216459 1.63832e-20 
2 1 -0.514526 2.2206 -0.012701 -0.000157267 -0.000216459 1.63832e-20 
3 1 3.35055 1.63088 -0.00642089 -0.000157267 -0.000216459 1.63832e-20 
4 2 -4.36554 -3.42745 0.0277783 -1.96584e-05 -2.70574e-05 2.0479e-21 
5 2 -0.192669 -2.27479 0.0202176 -1.96584e-05 -2.70574e-05 2.0479e-21 
6 2 5.12432 -1.07779 -0.0518495 -1.96584e-05 -2.70574e-05 2.0479e-21 
7 2 4.15274 4.45232 -0.00183604 -1.96584e-05 -2.70574e-05 2.0479e-21 
ITEM: TIMESTEP
1998
ITEM: NUMBER OF ATOMS
7
ITEM: BOX BOUNDS pp pp ff
-1.0000000000000000e+01 1.0000000000000000e+01
-1.0000000000000000e+01 1.0000000000000000e+01
-2.0499999999999998e+00 2.0499999999999998e+00
ITEM: ATOMS id type x y z mux muy muz 
1 1 -2.54095 -1.34573 0.00936022 0.000265449 -3.3534e-05 1.63832e-20 
2 1 -0.800273 2.4786 -0.00994173 0.000265449 -3.3534e-05 1.63832e-20 
3 1 3.2935 1.63998 -0.00537934 0.000265449 -3.3534e-05 1.63832e-20 
4 2 -4.48177 -3.68737 0.0308914 3.31811e-05 -4.19175e-06 2.0479e-21 
5 2 0.235438 -2.25559 -0.0099522 3.31811e-05 -4.19175e-06 2.0479e-21 
6 2 5.0852 -0.733615 -0.0317805 3.31811e-05 -4.19175e-06 2.0479e-21 
7 2 3.95385 4.74842 0.000157171 3.31811e-05 -4.19175e-06 2.0479e-21 
ITEM: TIMESTEP
2331
ITEM: NUMBER OF ATOMS
7
ITEM: BOX BOUNDS pp pp ff
-1.0000000000000000e+01 1.0000000000000000e+01
-1.0000000000000000e+01 1.0000000000000000e+01
-2.0499999999999998e+00 2.0499999999999998e+00
ITEM: ATOMS id type x y z mux muy muz 
1 1 -2.30764 -1.69656 -0.00510404 -9.84949e-05 0.00024877 1.63832e-20 
2 1 -1.15613 1.93294 -0.0218452 -9.84949e-05 0.00024877 1.63832e-20 
3 1 3.0882 2.02968 -0.0239704 -9.84949e-05 0.00024877 1.63832e-20 
4 2 -4.46934 -3.75635 -0.0254611 -1.23119e-05 3.10962e-05 2.0479e-21 
5 2 0.710901 -2.0574 0.0523239 -1.23119e-05 3.10962e-05 2.0479e-21 
6 2 5.09099 -0.410353 0.0322886 -1.23119e-05 3.10962e-05 2.0479e-21 
7 2 3.78968 4.88901 -0.0219728 -1.23119e-05 3.10962e-05 2.0479e-21 
ITEM: TIMESTEP
2664
ITEM: NUMBER OF ATOMS
7
ITEM: BOX BOUNDS pp pp ff
-1.0000000000000000e+01 1.0000000000000000e+01
-1.0000000000000000e+01 1.0000000000000000e+01
-2.0499999999999998e+00 2.0499999999999998e+00
ITEM: ATOMS id type x y z mux muy muz 
1 1 -1.94722 -2.31956 -0.0425823 -0.000170548 -0.000206157 1.63832e-20 
2 1 -1.20524 1.7405 -0.0264525 -0.000170548 -0.000206157 1.63832e-20 
3 1 2.60832 1.93578 -0.00909011 -0.000170548 -0.000206157 1.63832e-20 
4 2 -4.44136 -3.87085 -0.00676317 -2.13185e-05 -2.57697e-05 2.0479e-21 
5 2 0.969156 -1.82353 -0.00627651 -2.13185e-05 -2.57697e-05 2.0479e-21 
6 2 5.06052 -0.106626 -0.0463053 -2.13185e-05 -2.57697e-05 2.0479e-21 
7 2 3.58526 5.00208 0.00975841 -2.13185e-05 -2.57697e-05 2.0479e-21 
ITEM: TIMESTEP
2997
ITEM: NUMBER OF ATOMS
7
ITEM: BOX BOUNDS pp pp ff
-1.0000000000000000e+01 1.0000000000000000e+01
-1.0000000000000000e+01 1.0000000000000000e+01
-2.0499999999999998e+00 2.0499999999999998e+00
ITEM: ATOMS id type x y z mux muy muz 
1 1 -1.48322 -2.63214 -0.0196838 0.000262819 -5.01355e-05 1.63832e-20 
2 1 -1.67892 1.4056 -0.0082901 0.000262819 -5.01355e-05 1.63832e-20 
3 1 2.67859 2.04194 -0.0151054 0.000262819 -5.01355e-05 1.63832e-20 
4 2 -4.30769 -3.92699 -0.0209444 3.28524e-05 -6.26693e-06 2.0479e-21 
5 2 1.18182 -1.29001 0.0178015 3.28524e-05 -6.26693e-06 2.0479e-21 
6 2 5.0126 0.251253 -0.0369957 3.28524e-05 -6.26693e-06 2.0479e-21 
7 2 3.19741 5.09752 0.00459801 3.28524e-05 -6.26693e-06 2.0479e-21 
ITEM: TIMESTEP
3330
ITEM: NUMBER OF ATOMS
7
ITEM: BOX BOUNDS pp pp ff
-1.0000000000000000e+01 1.0000000000000000e+01
-1.0000000000000000e+01 1.0000000000000000e+01
-2.0499999999999998e+00 2.0499999999999998e+00
ITEM: ATOMS id type x y z mux muy muz 
1 1 -1.15664 -2.81874 0.0438107 -8.26801e-05 0.000254463 1.63832e-20 
2 1 -1.55337 0.936116 0.0263947 -8.26801e-05 0.000254463 1.63832e-20 
3 1 2.29793 2.07627 0.0146196 -8.26801e-05 0.000254463 1.63832e-20 
4 2 -3.93639 -4.03381 0.0209691 -1.0335e-05 3.18079e-05 2.0479e-21 
5 2 0.956462 -0.723269 0.0196127 -1.0335e-05 3.18079e-05 2.0479e-21 
6 2 5.0392 0.403295 -0.0304284 -1.0335e-05 3.18079e-05 2.0479e-21 
7 2 2.8449 4.9432 -0.02561 -1.0335e-05 3.18079e-05 2.0479e-21 
ITEM: TIMESTEP
3663
ITEM: NUMBER OF ATOMS
7
ITEM: BOX BOUNDS pp pp ff
-1.0000000000000000e+01 1.0000000000000000e+01
-1.0000000000000000e+01 1.0000000000000000e+01
-2.0499999999999998e+00 2.0499999999999998e+00
ITEM: ATOMS id type x y z mux muy muz 
1 1 -0.90695 -3.04537 -0.0120793 -0.000183156 -0.000195042 1.63832e-20 
2 1 -1.44372 1.01143 0.0272785 -0.000183156 -0.000195042 1.63832e-20 
3 1 2.29828 1.89567 0.0342439 -0.000183156 -0.000195042 1.63832e-20 
4 2 -3.69548 -4.01731 0.0336847 -2.28946e-05 -2.43802e-05 2.0479e-21 
5 2 0.952611 -0.726222 -0.0126426 -2.28946e-05 -2.43802e-05 2.0479e-21 
6 2 5.07499 0.528251 0.00158848 -2.28946e-05 -2.43802e-05 2.0479e-21 
7 2 2.4736 5.13684 -0.0451491 -2.28946e-05 -2.43802e-05 2.0479e-21 
ITEM: TIMESTEP
3996
ITEM: NUMBER OF ATOMS
7
ITEM: BOX BOUNDS pp pp ff
-1.0000000000000000e+01 1.0000000000000000e+01
-1.0000000000000000e+01 1.0000000000000000e+01
-2.0499999999999998e+00 2.0499999999999998e+00
ITEM: ATOMS id type x y z mux muy muz 
1 1 -0.616834 -3.11543 0.0111149 0.000259153 -6.65391e-05 1.63832e-20 
2 1 -1.74837 0.680159 -0.0362193 0.000259153 -6.65391e-05 1.63832e-20 
3 1 2.33382 2.17121 -0.0156924 0.000259153 -6.65391e-05 1.63832e-20 
4 2 -3.6167 -4.20668 0.0446883 3.23941e-05 -8.31739e-06 2.0479e-21 
5 2 1.05561 -0.620177 -0.0483334 3.23941e-05 -8.31739e-06 2.0479e-21 
6 2 4.89357 0.752218 0.0331601 3.23941e-05 -8.31739e-06 2.0479e-21 
7 2 2.16815 5.19688 -0.0254936 3.23941e-05 -8.31739e-06 2.0479e-21 
ITEM: TIMESTEP
4329
ITEM: NUMBER OF ATOMS
7
ITEM: BOX BOUNDS pp pp ff
-1.0000000000000000e+01 1.0000000000000000e+01
-1.0000000000000000e+01 1.0000000000000000e+01
-2.0499999999999998e+00 2.0499999999999998e+00
ITEM: ATOMS id type x y z mux muy muz 
1 1 -0.610325 -3.03311 -0.0257402 -6.65391e-05 0.000259153 1.63832e-20 
2 1 -1.5734 0.61392 -0.0158582 -6.65391e-05 0.000259153 1.63832e-20 
3 1 2.01045 2.29948 0.0135439 -6.65391e-05 0.000259153 1.63832e-20 
4 2 -3.27815 -4.41493 -0.0422739 -8.31739e-06 3.23941e-05 2.0479e-21 
5 2 1.11698 -0.623387 0.0322579 -8.31739e-06 3.23941e-05 2.0479e-21 
6 2 4.96949 0.944881 -0.00962658 -8.31739e-06 3.23941e-05 2.0479e-21 
7 2 1.90274 5.21552 -0.00207798 -8.31739e-06 3.23941e-05 2.0479e-21 
ITEM: TIMESTEP
4662
ITEM: NUMBER OF ATOMS
7
ITEM: BOX BOUNDS pp pp ff
-1.0000000000000000e+01 1.0000000000000000e+01
-1.0000000000000000e+01 1.0000000000000000e+01
-2.0499999999999998e+00 2.0499999999999998e+00
ITEM: ATOMS id type x y z mux muy muz 
1 1 -0.320101 -3.29357 -0.0198991 -0.000195042 -0.000183156 1.63832e-20 
2 1 -1.64951 0.634477 0.00455616 -0.000195042 -0.000183156 1.63832e-20 
3 1 2.02314 2.15928 -0.0357706 -0.000195042 -0.000183156 1.63832e-20 
4 2 -3.09447 -4.46965 -0.0515913 -2.43802e-05 -2.28946e-05 2.0479e-21 
5 2 1.04955 -0.578022 0.0265887 -2.43802e-05 -2.28946e-05 2.0479e-21 
6 2 4.88634 1.24936 -0.0431803 -2.43802e-05 -2.28946e-05 2.0479e-21 
7 2 1.54238 5.3233 0.0172243 -2.43802e-05 -2.28946e-05 2.0479e-21 
ITEM: TIMESTEP
4995
ITEM: NUMBER OF ATOMS
7
ITEM: BOX BOUNDS pp pp ff
-1.0000000000000000e+01 1.0000000000000000e+01
-1.0000000000000000e+01 1.0000000000000000e+01
-2.0499999999999998e+00 2.0499999999999998e+00
ITEM: ATOMS id type x y z mux muy muz 
1 1 -0.110036 -3.22462 0.0175374 0.000254463 -8.26801e-05 1.63832e-20 
2 1 -1.80739 0.296942 -0.0168714 0.000254463 -8.26801e-05 1.63832e-20 
3 1 1.96794 2.40294 0.0166553 0.000254463 -8.26801e-05 1.63832e-20 
4 2 -2.89885 -4.63378 -0.0305802 3.18079e-05 -1.0335e-05 2.0479e-21 
5 2 1.19094 -0.525958 -0.00937018 3.18079e-05 -1.0335e-05 2.0479e-21 
6 2 4.7823 1.55251 0.00749427 3.18079e-05 -1.0335e-05 2.0479e-21 
7 2 1.25063 5.30077 -0.0286185 3.18079e-05 -1.0335e-05 2.0479e-21 
ITEM: TIMESTEP
5328
ITEM: NUMBER OF ATOMS
7
ITEM: BOX BOUNDS pp pp ff
-1.0000000000000000e+01 1.0000000000000000e+01
-1.0000000000000000e+01 1.0000000000000000e+01
-2.0499999999999998e+00 2.0499999999999998e+00
ITEM: ATOMS id type x y z mux muy muz 
1 1 -0.0938009 -3.20265 -0.0147853 -5.01355e-05 0.000262819 1.63832e-20 
2 1 -1.59664 0.285366 0.0463909 -5.01355e-05 0.000262819 1.63832e-20 
3 1 1.67136 2.40986 0.0346815 -5.01355e-05 0.000262819 1.63832e-20 
4 2 -2.68715 -4.67594 -0.00877581 -6.26693e-06 3.28524e-05 2.0479e-21 
5 2 1.25339 -0.565179 -0.0480162 -6.26693e-06 3.28524e-05 2.0479e-21 
6 2 4.83254 1.73463 0.0496958 -6.26693e-06 3.28524e-05 2.0479e-21 
7 2 0.985069 5.32672 -0.0144578 -6.26693e-06 3.28524e-05 2.0479e-21 
ITEM: TIMESTEP
5661
ITEM: NUMBER OF ATOMS
7
ITEM: BOX BOUNDS pp pp ff
-1.0000000000000000e+01 1.0000000000000000e+01
-1.0000000000000000e+01 1.0000000000000000e+01
-2.0499999999999998e+00 2.0499999999999998e+00
ITEM: ATOMS id type x y z mux muy muz 
1 1 0.339081 -3.41567 -0.0110425 -0.000206157 -0.000170548 1.63832e-20 
2 1 -1.70883 0.138286 0.0183977 -0.000206157 -0.000170548 1.63832e-20 
3 1 1.72642 2.40966 -0.00140109 -0.000206157 -0.000170548 1.63832e-20 
4 2 -2.43975 -4.57382 0.0274203 -2.57697e-05 -2.13185e-05 2.0479e-21 
5 2 1.19131 -0.463881 0.03727 -2.57697e-05 -2.13185e-05 2.0479e-21 
6 2 4.66208 1.85261 0.0281817 -2.57697e-05 -2.13185e-05 2.0479e-21 
7 2 0.519138 5.36491 -0.0363023 -2.57697e-05 -2.13185e-05 2.0479e-21 
ITEM: TIMESTEP
5994
ITEM: NUMBER OF ATOMS
7
ITEM: BOX BOUNDS pp pp ff
-1.0000000000000000e+01 1.0000000000000000e+01
-1.0000000000000000e+01 1.0000000000000000e+01
-2.0499999999999998e+00 2.0499999999999998e+00
ITEM: ATOMS id type x y z mux muy muz 
1 1 0.528562 -3.31775 0.00530926 0.00024877 -9.84949e-05 1.63832e-20 
2 1 -1.6714 -0.162683 0.0460582 0.00024877 -9.84949e-05 1.63832e-20 
3 1 1.5203 2.59752 -0.0313741 0.00024877 -9.84949e-05 1.63832e-20 
4 2 -2.24536 -4.74645 0.00966341 3.10962e-05 -1.23119e-05 2.0479e-21 
5 2 1.36229 -0.42868 0.0548358 3.10962e-05 -1.23119e-05 2.0479e-21 
6 2 4.55622 2.072 -0.0036123 3.10962e-05 -1.23119e-05 2.0479e-21 
7 2 0.3008 5.30305 -0.00438793 3.10962e-05 -1.23119e-05 2.0479e-21 
ITEM: TIMESTEP
6327
ITEM: NUMBER OF ATOMS
7
ITEM: BOX BOUNDS pp pp ff
-1.0000000000000000e+01 1.0000000000000000e+01
-1.0000000000000000e+01 1.0000000000000000e+01
-2.0499999999999998e+00 2.0499999999999998e+00
ITEM: ATOMS id type x y z mux muy muz 
1 1 0.630596 -3.3941 -0.0578209 -3.3534e-05 0.000265449 1.63832e-20 
2 1 -1.53297 -0.156592 -0.00693849 -3.3534e-05 0.000265449 1.63832e-20 
3 1 1.3378 2.41444 -0.021176 -3.3534e-05 0.000265449 1.63832e-20 
4 2 -2.03943 -4.68061 0.0096236 -4.19175e-06 3.31811e-05 2.0479e-21 
5 2 1.4045 -0.564695 0.0209962 -4.19175e-06 3.31811e-05 2.0479e-21 
6 2 4.46261 2.24546 -0.0147674 -4.19175e-06 3.31811e-05 2.0479e-21 
7 2 0.00206468 5.23645 -0.0466875 -4.19175e-06 3.31811e-05 2.0479e-21 
ITEM: TIMESTEP
6660
ITEM: NUMBER OF ATOMS
7
ITEM: BOX BOUNDS pp pp ff
-1.0000000000000000e+01 1.0000000000000000e+01
-1.0000000000000000e+01 1.0000000000000000e+01
-2.0499999999999998e+00 2.0499999999999998e+00
ITEM: ATOMS id type x y z mux muy muz 
1 1 1.04037 -3.5347 -0.0340575 -0.000216459 -0.000157267 1.63832e-20 
2 1 -1.68726 -0.560658 -0.0190191 -0.000216459 -0.000157267 1.63832e-20 
3 1 1.29535 2.46971 -0.015887 -0.000216459 -0.000157267 1.63832e-20 
4 2 -1.81711 -4.64164 -0.0482452 -2.70574e-05 -1.96584e-05 2.0479e-21 
5 2 1.34466 -0.492165 0.049517 -2.70574e-05 -1.96584e-05 2.0479e-21 
6 2 4.23089 2.4971 -0.0543408 -2.70574e-05 -1.96584e-05 2.0479e-21 
7 2 -0.394969 5.11212 -0.00775583 -2.70574e-05 -1.96584e-05 2.0479e-21 
ITEM: TIMESTEP
6993
ITEM: NUMBER OF ATOMS
7
ITEM: BOX BOUNDS pp pp ff
-1.0000000000000000e+01 1.0000000000000000e+01
-1.0000000000000000e+01 1.0000000000000000e+01
-2.0499999999999998e+00 2.0499999999999998e+00
ITEM: ATOMS id type x y z mux muy muz 
1 1 1.25817 -3.49062 0.0400277 0.000242094 -0.000113921 1.63832e-20 
2 1 -1.47012 -0.831462 -0.0193184 0.000242094 -0.000113921 1.63832e-20 
3 1 0.914368 2.49908 0.00357087 0.000242094 -0.000113921 1.63832e-20 
4 2 -1.6621 -4.42356 0.00937613 3.02618e-05 -1.42401e-05 2.0479e-21 
5 2 1.51356 -0.501786 0.0322193 3.02618e-05 -1.42401e-05 2.0479e-21 
6 2 4.10197 2.69301 -0.017459 3.02618e-05 -1.42401e-05 2.0479e-21 
7 2 -0.54619 5.02804 0.0165595 3.02618e-05 -1.42401e-05 2.0479e-21 
ITEM: TIMESTEP
7326
ITEM: NUMBER OF ATOMS
7
ITEM: BOX BOUNDS pp pp ff
-1.0000000000000000e+01 1.0000000000000000e+01
-1.0000000000000000e+01 1.0000000000000000e+01
-2.0499999999999998e+00 2.0499999999999998e+00
ITEM: ATOMS id type x y z mux muy muz 
1 1 1.57475 -3.51652 0.0251827 -1.68001e-05 0.000267031 1.63832e-20 
2 1 -1.41785 -0.862656 0.0536421 -1.68001e-05 0.000267031 1.63832e-20 
3 1 0.739278 2.28174 0.0420159 -1.68001e-05 0.000267031 1.63832e-20 
4 2 -1.32235 -4.22189 0.0324416 -2.10002e-06 3.33788e-05 2.0479e-21 
5 2 1.53479 -0.566764 -0.027903 -2.10002e-06 3.33788e-05 2.0479e-21 
6 2 3.80683 2.86123 -0.0011823 -2.10002e-06 3.33788e-05 2.0479e-21 
7 2 -0.919835 4.98885 0.00501722 -2.10002e-06 3.33788e-05 2.0479e-21 
ITEM: TIMESTEP
7659
ITEM: NUMBER OF ATOMS
7
ITEM: BOX BOUNDS pp pp ff
-1.0000000000000000e+01 1.0000000000000000e+01
-1.0000000000000000e+01 1.0000000000000000e+01
-2.0499999999999998e+00 2.0499999999999998e+00
ITEM: ATOMS id type x y z mux muy muz 
1 1 1.79915 -3.44728 0.00739754 -0.000225907 -0.000143365 1.63832e-20 
2 1 -1.47313 -1.18716 -0.00273608 -0.000225907 -0.000143365 1.63832e-20 
3 1 0.736599 2.43779 -0.0124222 -0.000225907 -0.000143365 1.63832e-20 
4 2 -1.0685 -4.22417 -0.0277436 -2.82384e-05 -1.79206e-05 2.0479e-21 
5 2 1.56175 -0.459105 0.0147704 -2.82384e-05 -1.79206e-05 2.0479e-21 
6 2 3.59226 3.04869 0.0269612 -2.82384e-05 -1.79206e-05 2.0479e-21 
7 2 -1.15221 4.87299 0.03348 -2.82384e-05 -1.79206e-05 2.0479e-21 
ITEM: TIMESTEP
7992
ITEM: NUMBER OF ATOMS
7
ITEM: BOX BOUNDS pp pp ff
-1.0000000000000000e+01 1.0000000000000000e+01
-1.0000000000000000e+01 1.0000000000000000e+01
-2.0499999999999998e+00 2.0499999999999998e+00
ITEM: ATOMS id type x y z mux muy muz 
1 1 1.91799 -3.36639 0.0124246 0.000234463 -0.000128897 1.63832e-20 
2 1 -1.2279 -1.23077 -0.0249457 0.000234463 -0.000128897 1.63832e-20 
3 1 0.4225 2.43936 0.00977917 0.000234463 -0.000128897 1.63832e-20 
4 2 -0.970876 -4.18235 0.0136007 2.93079e-05 -1.61122e-05 2.0479e-21 
5 2 1.65954 -0.372847 0.029005 2.93079e-05 -1.61122e-05 2.0479e-21 
6 2 3.47473 3.29672 -0.0527022 2.93079e-05 -1.61122e-05 2.0479e-21 
7 2 -1.29903 4.82908 0.0487037 2.93079e-05 -1.61122e-05 2.0479e-21 
ITEM: TIMESTEP
8325
ITEM: NUMBER OF ATOMS
7
ITEM: BOX BOUNDS pp pp ff
-1.0000000000000000e+01 1.0000000000000000e+01
-1.0000000000000000e+01 1.0000000000000000e+01
-2.0499999999999998e+00 2.0499999999999998e+00
ITEM: ATOMS id type x y z mux muy muz 
1 1 2.13291 -3.29628 0.0274531 3.92005e-17 0.000267559 1.63832e-20 
2 1 -1.23871 -1.01173 0.0233997 3.92005e-17 0.000267559 1.63832e-20 
3 1 0.556217 2.34644 -0.015877 3.92005e-17 0.000267559 1.63832e-20 
4 2 -0.689502 -4.24794 0.0494563 4.90006e-18 3.34448e-05 2.0479e-21 
5 2 1.66745 -0.377958 -0.0139552 4.90006e-18 3.34448e-05 2.0479e-21 
6 2 3.4001 3.43263 -0.00965597 4.90006e-18 3.34448e-05 2.0479e-21 
7 2 -1.56556 4.81064 0.0359028 4.90006e-18 3.34448e-05 2.0479e-21 
ITEM: TIMESTEP
8658
ITEM: NUMBER OF ATOMS
7
ITEM: BOX BOUNDS pp pp ff
-1.0000000000000000e+01 1.0000000000000000e+01
-1.0000000000000000e+01 1.0000000000000000e+01
-2.0499999999999998e+00 2.0499999999999998e+00
ITEM: ATOMS id type x y z mux muy muz 
1 1 2.26709 -3.14507 0.0240882 -0.000234463 -0.000128897 1.63832e-20 
2 1 -1.21734 -1.3075 -0.0344765 -0.000234463 -0.000128897 1.63832e-20 
3 1 0.479673 2.55927 -0.022856 -0.000234463 -0.000128897 1.63832e-20 
4 2 -0.491093 -4.24502 0.046748 -2.93079e-05 -1.61122e-05 2.0479e-21 
5 2 1.65643 -0.224656 0.0544183 -2.93079e-05 -1.61122e-05 2.0479e-21 
6 2 3.27572 3.4479 -0.0165061 -2.93079e-05 -1.61122e-05 2.0479e-21 
7 2 -1.76964 4.58889 -0.015577 -2.93079e-05 -1.61122e-05 2.0479e-21 
ITEM: TIMESTEP
8991
ITEM: NUMBER OF ATOMS
7
ITEM: BOX BOUNDS pp pp ff
-1.0000000000000000e+01 1.0000000000000000e+01
-1.0000000000000000e+01 1.0000000000000000e+01
-2.0499999999999998e+00 2.0499999999999998e+00
ITEM: ATOMS id type x y z mux muy muz 
1 1 2.32186 -3.11048 0.00606196 0.000225907 -0.000143365 1.63832e-20 
2 1 -1.03757 -1.31498 0.00847328 0.000225907 -0.000143365 1.63832e-20 
3 1 0.20529 2.4573 0.0100809 0.000225907 -0.000143365 1.63832e-20 
4 2 -0.444158 -4.22477 0.0372831 2.82384e-05 -1.79206e-05 2.0479e-21 
5 2 1.73445 -0.184789 -0.0270935 2.82384e-05 -1.79206e-05 2.0479e-21 
6 2 3.18703 3.59555 0.0258175 2.82384e-05 -1.79206e-05 2.0479e-21 
7 2 -1.98068 4.45671 0.020762 2.82384e-05 -1.79206e-05 2.0479e-21 
ITEM: TIMESTEP
9324
ITEM: NUMBER OF ATOMS
7
ITEM: BOX BOUNDS pp pp ff
-1.0000000000000000e+01 1.0000000000000000e+01
-1.0000000000000000e+01 1.0000000000000000e+01
-2.0499999999999998e+00 2.0499999999999998e+00
ITEM: ATOMS id type x y z mux muy muz 
1 1 2.51154 -2.98551 -0.0351592 1.68001e-05 0.000267031 1.63832e-20 
2 1 -1.13507 -1.13875 -0.0375073 1.68001e-05 0.000267031 1.63832e-20 
3 1 0.293456 2.42136 -0.0146093 1.68001e-05 0.000267031 1.63832e-20 
4 2 -0.160327 -4.30712 -0.00414082 2.10002e-06 3.33788e-05 2.0479e-21 
5 2 1.66424 -0.157559 -0.0237442 2.10002e-06 3.33788e-05 2.0479e-21 
6 2 3.00005 3.68591 -0.0417587 2.10002e-06 3.33788e-05 2.0479e-21 
7 2 -2.30753 4.26472 -0.0166074 2.10002e-06 3.33788e-05 2.0479e-21 
ITEM: TIMESTEP
9657
ITEM: NUMBER OF ATOMS
7
ITEM: BOX BOUNDS pp pp ff
-1.0000000000000000e+01 1.0000000000000000e+01
-1.0000000000000000e+01 1.0000000000000000e+01
-2.0499999999999998e+00 2.0499999999999998e+00
ITEM: ATOMS id type x y z mux muy muz 
1 1 2.67195 -2.85988 -0.0466163 -0.000242094 -0.000113921 1.63832e-20 
2 1 -0.992946 -1.49844 -0.00189657 -0.000242094 -0.000113921 1.63832e-20 
3 1 0.0965733 2.56661 0.0124816 -0.000242094 -0.000113921 1.63832e-20 
4 2 0.0693204 -4.29841 -0.0529813 -3.02618e-05 -1.42401e-05 2.0479e-21 
5 2 1.6939 -0.0328708 -0.0360484 -3.02618e-05 -1.42401e-05 2.0479e-21 
6 2 2.86749 3.72497 -0.00764135 -3.02618e-05 -1.42401e-05 2.0479e-21 
7 2 -2.48798 4.06891 0.0590777 -3.02618e-05 -1.42401e-05 2.0479e-21 
ITEM: TIMESTEP
9990
ITEM: NUMBER OF ATOMS
7
ITEM: BOX BOUNDS pp pp ff
-1.0000000000000000e+01 1.0000000000000000e+01
-1.0000000000000000e+01 1.0000000000000000e+01
-2.0499999999999998e+00 2.0499999999999998e+00
ITEM: ATOMS id type x y z mux muy muz 
1 1 2.73978 -2.82658 -0.00450303 0.000216459 -0.000157267 1.63832e-20 
2 1 -0.8326 -1.50252 -0.0486304 0.000216459 -0.000157267 1.63832e-20 
3 1 -0.141916 2.35188 0.000366348 0.000216459 -0.000157267 1.63832e-20 
4 2 0.164698 -4.35147 0.041428 2.70574e-05 -1.96584e-05 2.0479e-21 
5 2 1.75578 -0.0115668 0.00277448 2.70574e-05 -1.96584e-05 2.0479e-21 
6 2 2.77037 3.79657 -0.0315014 2.70574e-05 -1.96584e-05 2.0479e-21 
7 2 -2.70984 3.8593 0.0155523 2.70574e-05 -1.96584e-05 2.0479e-21 
ITEM: TIMESTEP
10323
ITEM: NUMBER OF ATOMS
7
ITEM: BOX BOUNDS pp pp ff
-1.0000000000000000e+01 1.0000000000000000e+01
-1.0000000000000000e+01 1.0000000000000000e+01
-2.0499999999999998e+00 2.0499999999999998e+00
ITEM: ATOMS id type x y z mux muy muz 
1 1 2.89234 -2.779 0.0493615 3.3534e-05 0.000265449 1.63832e-20 
2 1 -0.937065 -1.50123 0.0197724 3.3534e-05 0.000265449 1.63832e-20 
3 1 0.00911131 2.3389 -0.0183943 3.3534e-05 0.000265449 1.63832e-20 
4 2 0.437394 -4.45773 0.00245793 4.19175e-06 3.31811e-05 2.0479e-21 
5 2 1.6728 -0.0615153 0.0430879 4.19175e-06 3.31811e-05 2.0479e-21 
6 2 2.506 3.98257 -0.0235356 4.19175e-06 3.31811e-05 2.0479e-21 
7 2 -2.89553 3.72103 0.000580574 4.19175e-06 3.31811e-05 2.0479e-21 
ITEM: TIMESTEP
10656
ITEM: NUMBER OF ATOMS
7
ITEM: BOX BOUNDS pp pp ff
-1.0000000000000000e+01 1.0000000000000000e+01
-1.0000000000000000e+01 1.0000000000000000e+01
-2.0499999999999998e+00 2.0499999999999998e+00
ITEM: ATOMS id type x y z mux muy muz 
1 1 2.97345 -2.69572 0.0204795 -0.00024877 -9.84949e-05 1.63832e-20 
2 1 -0.776719 -1.68565 0.0143797 -0.00024877 -9.84949e-05 1.63832e-20 
3 1 -0.219566 2.42864 0.0300142 -0.00024877 -9.84949e-05 1.63832e-20 
4 2 0.501423 -4.36182 0.00763264 -3.10962e-05 -1.23119e-05 2.0479e-21 
5 2 1.71917 0.0249813 -0.0227669 -3.10962e-05 -1.23119e-05 2.0479e-21 
6 2 2.407 4.0529 -0.0550999 -3.10962e-05 -1.23119e-05 2.0479e-21 
7 2 -2.99913 3.44859 -0.00578167 -3.10962e-05 -1.23119e-05 2.0479e-21 
ITEM: TIMESTEP
10989
ITEM: NUMBER OF ATOMS
7
ITEM: BOX BOUNDS pp pp ff
-1.0000000000000000e+01 1.0000000000000000e+01
-1.0000000000000000e+01 1.0000000000000000e+01
-2.0499999999999998e+00 2.0499999999999998e+00
ITEM: ATOMS id type x y z mux muy muz 
1 1 3.02005 -2.60616 0.0545369 0.000206157 -0.000170548 1.63832e-20 
2 1 -0.726589 -1.60182 0.0198331 0.000206157 -0.000170548 1.63832e-20 
3 1 -0.301875 2.24875 0.0270774 0.000206157 -0.000170548 1.63832e-20 
4 2 0.657562 -4.44072 0.0150202 2.57697e-05 -2.13185e-05 2.0479e-21 
5 2 1.74634 0.0585962 0.0546528 2.57697e-05 -2.13185e-05 2.0479e-21 
6 2 2.20922 4.16241 -0.00577435 2.57697e-05 -2.13185e-05 2.0479e-21 
7 2 -3.13088 3.35303 -0.0175574 2.57697e-05 -2.13185e-05 2.0479e-21 
ITEM: TIMESTEP
11322
ITEM: NUMBER OF ATOMS
7
ITEM: BOX BOUNDS pp pp ff
-1.0000000000000000e+01 1.0000000000000000e+01
-1.0000000000000000e+01 1.0000000000000000e+01
-2.0499999999999998e+00 2.0499999999999998e+00
ITEM: ATOMS id type x y z mux muy muz 
1 1 3.25393 -2.48434 0.0578885 5.01355e-05 0.000262819 1.63832e-20 
2 1 -0.7081 -1.78092 0.0154528 5.01355e-05 0.000262819 1.63832e-20 
3 1 -0.331456 2.27698 -0.00798741 5.01355e-05 0.000262819 1.63832e-20 
4 2 0.997995 -4.42941 0.0254418 6.26693e-06 3.28524e-05 2.0479e-21 
5 2 1.63036 0.0400689 0.0239888 6.26693e-06 3.28524e-05 2.0479e-21 
6 2 2.02065 4.06839 -0.0208199 6.26693e-06 3.28524e-05 2.0479e-21 
7 2 -3.35097 3.14015 0.034995 6.26693e-06 3.28524e-05 2.0479e-21 
ITEM: TIMESTEP
11655
ITEM: NUMBER OF ATOMS
7
ITEM: BOX BOUNDS pp pp ff
-1.0000000000000000e+01 1.0000000000000000e+01
-1.0000000000000000e+01 1.0000000000000000e+01
-2.0499999999999998e+00 2.0499999999999998e+00
ITEM: ATOMS id type x y z mux muy muz 
1 1 3.32745 -2.43697 -0.0151385 -0.000254463 -8.26801e-05 1.63832e-20 
2 1 -0.474723 -1.94768 0.026629 -0.000254463 -8.26801e-05 1.63832e-20 
3 1 -0.521752 2.15278 -0.0263629 -0.000254463 -8.26801e-05 1.63832e-20 
4 2 1.11794 -4.44671 0.0149002 -3.18079e-05 -1.0335e-05 2.0479e-21 
5 2 1.75748 0.116695 -0.00560453 -3.18079e-05 -1.0335e-05 2.0479e-21 
6 2 1.90168 4.23792 -0.0233963 -3.18079e-05 -1.0335e-05 2.0479e-21 
7 2 -3.36924 2.87752 0.0113587 -3.18079e-05 -1.0335e-05 2.0479e-21 
ITEM: TIMESTEP
11988
ITEM: NUMBER OF ATOMS
7
ITEM: BOX BOUNDS pp pp ff
-1.0000000000000000e+01 1.0000000000000000e+01
-1.0000000000000000e+01 1.0000000000000000e+01
-2.0499999999999998e+00 2.0499999999999998e+00
ITEM: ATOMS id type x y z mux muy muz 
1 1 3.4317 -2.324 -0.0261031 0.000195042 -0.000183156 1.63832e-20 
2 1 -0.453914 -1.76652 -0.0141127 0.000195042 -0.000183156 1.63832e-20 
3 1 -0.440469 2.05978 -0.0374755 0.000195042 -0.000183156 1.63832e-20 
4 2 1.36054 -4.44768 0.0174653 2.43802e-05 -2.28946e-05 2.0479e-21 
5 2 1.81816 0.144047 -0.0172216 2.43802e-05 -2.28946e-05 2.0479e-21 
6 2 1.62886 4.34882 0.0417349 2.43802e-05 -2.28946e-05 2.0479e-21 
7 2 -3.51343 2.64933 -0.05935 2.43802e-05 -2.28946e-05 2.0479e-21 
ITEM: TIMESTEP
12321
ITEM: NUMBER OF ATOMS
7
ITEM: BOX BOUNDS pp pp ff
-1.0000000000000000e+01 1.0000000000000000e+01
-1.0000000000000000e+01 1.0000000000000000e+01
-2.0499999999999998e+00 2.0499999999999998e+00
ITEM: ATOMS id type x y z mux muy muz 
1 1 3.60863 -2.26112 0.0237516 6.65391e-05 0.000259153 1.63832e-20 
2 1 -0.392909 -2.01509 -0.00525852 6.65391e-05 0.000259153 1.63832e-20 
3 1 -0.454968 2.19267 0.0219101 6.65391e-05 0.000259153 1.63832e-20 
4 2 1.56575 -4.42047 0.00730487 8.31739e-06 3.23941e-05 2.0479e-21 
5 2 1.77178 0.1261 0.00371425 8.31739e-06 3.23941e-05 2.0479e-21 
6 2 1.51001 4.37171 -0.0154087 8.31739e-06 3.23941e-05 2.0479e-21 
7 2 -3.51847 2.27764 -0.0170266 8.31739e-06 3.23941e-05 2.0479e-21 
ITEM: TIMESTEP
12654
ITEM: NUMBER OF ATOMS
7
ITEM: BOX BOUNDS pp pp ff
-1.0000000000000000e+01 1.0000000000000000e+01
-1.0000000000000000e+01 1.0000000000000000e+01
-2.0499999999999998e+00 2.0499999999999998e+00
ITEM: ATOMS id type x y z mux muy muz 
1 1 3.63532 -2.12756 0.000955423 -0.000259153 -6.65391e-05 1.63832e-20 
2 1 -0.170138 -1.99892 -0.032072 -0.000259153 -6.65391e-05 1.63832e-20 
3 1 -0.677057 1.98897 -0.0089203 -0.000259153 -6.65391e-05 1.63832e-20 
4 2 1.6259 -4.33775 -0.0572574 -3.23941e-05 -8.31739e-06 2.0479e-21 
5 2 1.84052 0.259997 0.00790723 -3.23941e-05 -8.31739e-06 2.0479e-21 
6 2 1.41201 4.403 -0.0196928 -3.23941e-05 -8.31739e-06 2.0479e-21 
7 2 -3.6022 2.02145 -0.0342263 -3.23941e-05 -8.31739e-06 2.0479e-21 
ITEM: TIMESTEP
12987
ITEM: NUMBER OF ATOMS
7
ITEM: BOX BOUNDS pp pp ff
-1.0000000000000000e+01 1.0000000000000000e+01
-1.0000000000000000e+01 1.0000000000000000e+01
-2.0499999999999998e+00 2.0499999999999998e+00
ITEM: ATOMS id type x y z mux muy muz 
1 1 3.73147 -1.9946 0.00463722 0.000183156 -0.000195042 1.63832e-20 
2 1 -0.284452 -1.88649 -0.0290177 0.000183156 -0.000195042 1.63832e-20 
3 1 -0.609899 1.90315 -0.0498406 0.000183156 -0.000195042 1.63832e-20 
4 2 1.89719 -4.34657 -0.049046 2.28946e-05 -2.43802e-05 2.0479e-21 
5 2 1.79023 0.213154 -0.0112317 2.28946e-05 -2.43802e-05 2.0479e-21 
6 2 1.2141 4.34648 0.0186924 2.28946e-05 -2.43802e-05 2.0479e-21 
7 2 -3.73266 1.77403 -0.0235811 2.28946e-05 -2.43802e-05 2.0479e-21 
ITEM: TIMESTEP
13320
ITEM: NUMBER OF ATOMS
7
ITEM: BOX BOUNDS pp pp ff
-1.0000000000000000e+01 1.0000000000000000e+01
-1.0000000000000000e+01 1.0000000000000000e+01
-2.0499999999999998e+00 2.0499999999999998e+00
ITEM: ATOMS id type x y z mux muy muz 
1 1 3.85577 -1.72361 -0.047428 8.26801e-05 0.000254463 1.63832e-20 
2 1 -0.108242 -2.08819 0.0241545 8.26801e-05 0.000254463 1.63832e-20 
3 1 -0.849164 2.13642 0.0467209 8.26801e-05 0.000254463 1.63832e-20 
4 2 2.14574 -4.14842 -0.0330372 1.0335e-05 3.18079e-05 2.0479e-21 
5 2 1.72412 0.386644 0.00319279 1.0335e-05 3.18079e-05 2.0479e-21 
6 2 1.0618 4.3675 -0.00330152 1.0335e-05 3.18079e-05 2.0479e-21 
7 2 -3.78703 1.49008 0.00792048 1.0335e-05 3.18079e-05 2.0479e-21 
ITEM: TIMESTEP
13653
ITEM: NUMBER OF ATOMS
7
ITEM: BOX BOUNDS pp pp ff