ITEM: TIMESTEP
0
ITEM: NUMBER OF ATOMS
7
ITEM: BOX BOUNDS pp pp ff
-1.0000000000000000e+01 1.0000000000000000e+01
-1.0000000000000000e+01 1.0000000000000000e+01
-2.0499999999999998e+00 2.0499999999999998e+00
ITEM: ATOMS id type x y z mux muy muz 
1 1 -5 0 0 8.91862e-05 0 5.46108e-21 
2 1 0 5 0 8.91862e-05 0 5.46108e-21 
3 1 5 0 0 8.91862e-05 0 5.46108e-21 
4 2 -5 -3 0 1.11483e-05 0 6.82635e-22 
5 2 0 -3 0 1.11483e-05 0 6.82635e-22 
6 2 5 -3 0 1.11483e-05 0 6.82635e-22 
7 2 5 5 0 1.11483e-05 0 6.82635e-22 
ITEM: TIMESTEP
333
ITEM: NUMBER OF ATOMS
7
ITEM: BOX BOUNDS pp pp ff
-1.0000000000000000e+01 1.0000000000000000e+01
-1.0000000000000000e+01 1.0000000000000000e+01
-2.0499999999999998e+00 2.0499999999999998e+00
ITEM: ATOMS id type x y z mux muy muz 
1 1 -4.99919 0.00149954 -0.0118529 -4.29658e-05 7.81544e-05 5.46108e-21 
2 1 -0.0541221 5.07006 0.0277129 -4.29658e-05 7.81544e-05 5.46108e-21 
3 1 4.91958 -0.0219298 0.013038 -4.29658e-05 7.81544e-05 5.46108e-21 
4 2 -4.98377 -2.9855 -0.0189633 -5.37072e-06 9.76931e-06 6.82635e-22 
5 2 0.181435 -3.07966 -0.00646089 -5.37072e-06 9.76931e-06 6.82635e-22 
6 2 4.89405 -3.01568 -0.0282316 -5.37072e-06 9.76931e-06 6.82635e-22 
7 2 4.89578 4.95203 0.0363735 -5.37072e-06 9.76931e-06 6.82635e-22 
ITEM: TIMESTEP
666
ITEM: NUMBER OF ATOMS
7
ITEM: BOX BOUNDS pp pp ff
-1.0000000000000000e+01 1.0000000000000000e+01
-1.0000000000000000e+01 1.0000000000000000e+01
-2.0499999999999998e+00 2.0499999999999998e+00
ITEM: ATOMS id type x y z mux muy muz 
1 1 -4.98332 0.00123818 0.0604035 -4.77883e-05 -7.53024e-05 5.46108e-21 
2 1 -0.0413108 5.05744 -0.0219582 -4.77883e-05 -7.53024e-05 5.46108e-21 
3 1 4.87845 0.0350112 0.0145967 -4.77883e-05 -7.53024e-05 5.46108e-21 
4 2 -5.05939 -3.03318 0.0472371 -5.97354e-06 -9.4128e-06 6.82635e-22 
5 2 0.295062 -3.09273 -0.0276291 -5.97354e-06 -9.4128e-06 6.82635e-22 
6 2 4.89543 -2.9975 0.011357 -5.97354e-06 -9.4128e-06 6.82635e-22 
7 2 4.8 4.99957 0.0521703 -5.97354e-06 -9.4128e-06 6.82635e-22 
ITEM: TIMESTEP
999
ITEM: NUMBER OF ATOMS
7
ITEM: BOX BOUNDS pp pp ff
-1.0000000000000000e+01 1.0000000000000000e+01
-1.0000000000000000e+01 1.0000000000000000e+01
-2.0499999999999998e+00 2.0499999999999998e+00
ITEM: ATOMS id type x y z mux muy muz 
1 1 -4.94769 0.034849 -0.0315304 8.90102e-05 -5.60005e-06 5.46108e-21 
2 1 -0.101123 5.0335 -0.0517898 8.90102e-05 -5.60005e-06 5.46108e-21 
3 1 4.86074 0.131714 0.0120045 8.90102e-05 -5.60005e-06 5.46108e-21 
4 2 -5.13335 -3.00255 -0.0433618 1.11263e-05 -7.00006e-07 6.82635e-22 
5 2 0.292886 -3.01533 0.0217057 1.11263e-05 -7.00006e-07 6.82635e-22 
6 2 4.90782 -2.8612 0.0595784 1.11263e-05 -7.00006e-07 6.82635e-22 
7 2 4.77774 4.99035 0.0471241 1.11263e-05 -7.00006e-07 6.82635e-22 
ITEM: TIMESTEP
1332
ITEM: NUMBER OF ATOMS
7
ITEM: BOX BOUNDS pp pp ff
-1.0000000000000000e+01 1.0000000000000000e+01
-1.0000000000000000e+01 1.0000000000000000e+01
-2.0499999999999998e+00 2.0499999999999998e+00
ITEM: ATOMS id type x y z mux muy muz 
1 1 -4.85615 -0.0573499 -0.0457851 -3.79736e-05 8.06981e-05 5.46108e-21 
2 1 0.0654092 5.07979 -0.0318156 -3.79736e-05 8.06981e-05 5.46108e-21 
3 1 4.75592 0.0899494 -0.00866373 -3.79736e-05 8.06981e-05 5.46108e-21 
4 2 -5.17346 -3.03892 -0.00411872 -4.7467e-06 1.00873e-05 6.82635e-22 
5 2 0.273987 -2.98313 0.0304065 -4.7467e-06 1.00873e-05 6.82635e-22 
6 2 4.99827 -2.89286 -0.0563993 -4.7467e-06 1.00873e-05 6.82635e-22 
7 2 4.76411 4.88005 -0.00290461 -4.7467e-06 1.00873e-05 6.82635e-22 
ITEM: TIMESTEP
1665
ITEM: NUMBER OF ATOMS
7
ITEM: BOX BOUNDS pp pp ff
-1.0000000000000000e+01 1.0000000000000000e+01
-1.0000000000000000e+01 1.0000000000000000e+01
-2.0499999999999998e+00 2.0499999999999998e+00
ITEM: ATOMS id type x y z mux muy muz 
1 1 -4.82379 0.0541777 0.0112412 -5.24223e-05 -7.21531e-05 5.46108e-21 
2 1 0.0943645 4.97456 -0.0538867 -5.24223e-05 -7.21531e-05 5.46108e-21 
3 1 4.71022 0.0793093 0.0233197 -5.24223e-05 -7.21531e-05 5.46108e-21 
4 2 -5.25239 -2.9443 -0.0289879 -6.55279e-06 -9.01914e-06 6.82635e-22 
5 2 0.330551 -2.89481 -0.0526195 -6.55279e-06 -9.01914e-06 6.82635e-22 
6 2 5.02053 -2.93893 -0.0472376 -6.55279e-06 -9.01914e-06 6.82635e-22 
7 2 4.67112 4.83361 0.0492529 -6.55279e-06 -9.01914e-06 6.82635e-22 
ITEM: TIMESTEP
1998
ITEM: NUMBER OF ATOMS
7
ITEM: BOX BOUNDS pp pp ff
-1.0000000000000000e+01 1.0000000000000000e+01
-1.0000000000000000e+01 1.0000000000000000e+01
-2.0499999999999998e+00 2.0499999999999998e+00
ITEM: ATOMS id type x y z mux muy muz 
1 1 -4.86374 0.0598213 -0.0207108 8.84829e-05 -1.1178e-05 5.46108e-21 
2 1 0.150674 4.84795 -0.0209497 8.84829e-05 -1.1178e-05 5.46108e-21 
3 1 4.72288 -0.00638513 0.041221 8.84829e-05 -1.1178e-05 5.46108e-21 
4 2 -5.3748 -2.89217 0.0390395 1.10604e-05 -1.39725e-06 6.82635e-22 
5 2 0.446024 -2.8962 -0.00907099 1.10604e-05 -1.39725e-06 6.82635e-22 
6 2 5.03715 -3.07171 -0.0122567 1.10604e-05 -1.39725e-06 6.82635e-22 
7 2 4.68942 4.82462 -0.0260394 1.10604e-05 -1.39725e-06 6.82635e-22 
ITEM: TIMESTEP
2331
ITEM: NUMBER OF ATOMS
7
ITEM: BOX BOUNDS pp pp ff
-1.0000000000000000e+01 1.0000000000000000e+01
-1.0000000000000000e+01 1.0000000000000000e+01
-2.0499999999999998e+00 2.0499999999999998e+00
ITEM: ATOMS id type x y z mux muy muz 
1 1 -4.76275 0.242523 0.0190748 -3.28316e-05 8.29232e-05 5.46108e-21 
2 1 0.262274 4.7164 -0.0378992 -3.28316e-05 8.29232e-05 5.46108e-21 
3 1 4.67158 -0.0274307 0.02687 -3.28316e-05 8.29232e-05 5.46108e-21 
4 2 -5.51133 -2.81886 0.0209177 -4.10395e-06 1.03654e-05 6.82635e-22 
5 2 0.434037 -2.78697 -0.0194591 -4.10395e-06 1.03654e-05 6.82635e-22 
6 2 5.07517 -3.07835 -0.0174119 -4.10395e-06 1.03654e-05 6.82635e-22 
7 2 4.59029 4.79739 0.0474516 -4.10395e-06 1.03654e-05 6.82635e-22 
ITEM: TIMESTEP
2664
ITEM: NUMBER OF ATOMS
7
ITEM: BOX BOUNDS pp pp ff
-1.0000000000000000e+01 1.0000000000000000e+01
-1.0000000000000000e+01 1.0000000000000000e+01
-2.0499999999999998e+00 2.0499999999999998e+00
ITEM: ATOMS id type x y z mux muy muz 
1 1 -4.70869 0.111714 -0.0135495 -5.68494e-05 -6.87191e-05 5.46108e-21 
2 1 0.280133 4.62377 -0.014659 -5.68494e-05 -6.87191e-05 5.46108e-21 
3 1 4.5918 0.052773 -0.010338 -5.68494e-05 -6.87191e-05 5.46108e-21 
4 2 -5.48755 -2.81608 0.0138232 -7.10618e-06 -8.58989e-06 6.82635e-22 
5 2 0.488777 -2.65341 -0.00365669 -7.10618e-06 -8.58989e-06 6.82635e-22 
6 2 5.12531 -2.92169 0.0354076 -7.10618e-06 -8.58989e-06 6.82635e-22 
7 2 4.58516 4.8067 -0.0209593 -7.10618e-06 -8.58989e-06 6.82635e-22 
ITEM: TIMESTEP
2997
ITEM: NUMBER OF ATOMS
7
ITEM: BOX BOUNDS pp pp ff
-1.0000000000000000e+01 1.0000000000000000e+01
-1.0000000000000000e+01 1.0000000000000000e+01
-2.0499999999999998e+00 2.0499999999999998e+00
ITEM: ATOMS id type x y z mux muy muz 
1 1 -4.63358 0.109815 0.00797568 8.76064e-05 -1.67118e-05 5.46108e-21 
2 1 0.309785 4.55654 -0.0297604 8.76064e-05 -1.67118e-05 5.46108e-21 
3 1 4.58006 0.107533 -0.0477322 8.76064e-05 -1.67118e-05 5.46108e-21 
4 2 -5.41234 -2.84468 -0.00759629 1.09508e-05 -2.08898e-06 6.82635e-22 
5 2 0.487491 -2.63435 -0.0165538 1.09508e-05 -2.08898e-06 6.82635e-22 
6 2 5.12221 -2.86251 -0.00763085 1.09508e-05 -2.08898e-06 6.82635e-22 
7 2 4.491 4.66952 -0.00237375 1.09508e-05 -2.08898e-06 6.82635e-22 
ITEM: TIMESTEP
3330
ITEM: NUMBER OF ATOMS
7
ITEM: BOX BOUNDS pp pp ff
-1.0000000000000000e+01 1.0000000000000000e+01
-1.0000000000000000e+01 1.0000000000000000e+01
-2.0499999999999998e+00 2.0499999999999998e+00
ITEM: ATOMS id type x y z mux muy muz 
1 1 -4.63471 0.215041 0.0104322 -2.756e-05 8.48211e-05 5.46108e-21 
2 1 0.286006 4.42455 0.00178537 -2.756e-05 8.48211e-05 5.46108e-21 
3 1 4.50727 0.178012 -0.00892857 -2.756e-05 8.48211e-05 5.46108e-21 
4 2 -5.26876 -2.71975 0.0183009 -3.44501e-06 1.06026e-05 6.82635e-22 
5 2 0.446352 -2.67219 -0.0232295 -3.44501e-06 1.06026e-05 6.82635e-22 
6 2 5.19232 -2.86357 0.0214042 -3.44501e-06 1.06026e-05 6.82635e-22 
7 2 4.5255 4.68698 0.000298052 -3.44501e-06 1.06026e-05 6.82635e-22 
ITEM: TIMESTEP
3663
ITEM: NUMBER OF ATOMS
7
ITEM: BOX BOUNDS pp pp ff
-1.0000000000000000e+01 1.0000000000000000e+01
-1.0000000000000000e+01 1.0000000000000000e+01
-2.0499999999999998e+00 2.0499999999999998e+00
ITEM: ATOMS id type x y z mux muy muz 
1 1 -4.55888 0.275858 0.0381638 -6.10521e-05 -6.50139e-05 5.46108e-21 
2 1 0.315615 4.33732 -0.00928076 -6.10521e-05 -6.50139e-05 5.46108e-21 
3 1 4.57628 0.200125 0.0254336 -6.10521e-05 -6.50139e-05 5.46108e-21 
4 2 -5.15453 -2.65324 0.0384608 -7.63152e-06 -8.12674e-06 6.82635e-22 
5 2 0.465781 -2.65335 -0.0447178 -7.63152e-06 -8.12674e-06 6.82635e-22 
6 2 5.155 -2.74793 0.041749 -7.63152e-06 -8.12674e-06 6.82635e-22 
7 2 4.52918 4.73075 -0.00988747 -7.63152e-06 -8.12674e-06 6.82635e-22 
ITEM: TIMESTEP
3996
ITEM: NUMBER OF ATOMS
7
ITEM: BOX BOUNDS pp pp ff
-1.0000000000000000e+01 1.0000000000000000e+01
-1.0000000000000000e+01 1.0000000000000000e+01
-2.0499999999999998e+00 2.0499999999999998e+00
ITEM: ATOMS id type x y z mux muy muz 
1 1 -4.5687 0.271755 0.0354702 8.63842e-05 -2.21797e-05 5.46108e-21 
2 1 0.336674 4.28564 0.0107326 8.63842e-05 -2.21797e-05 5.46108e-21 
3 1 4.41545 0.286197 -0.000875196 8.63842e-05 -2.21797e-05 5.46108e-21 
4 2 -5.17106 -2.70934 -0.00262997 1.0798e-05 -2.77246e-06 6.82635e-22 
5 2 0.353157 -2.67876 0.000453499 1.0798e-05 -2.77246e-06 6.82635e-22 
6 2 5.22545 -2.69028 0.0281893 1.0798e-05 -2.77246e-06 6.82635e-22 
7 2 4.51874 4.66762 -0.0295596 1.0798e-05 -2.77246e-06 6.82635e-22 
ITEM: TIMESTEP
4329
ITEM: NUMBER OF ATOMS
7
ITEM: BOX BOUNDS pp pp ff
-1.0000000000000000e+01 1.0000000000000000e+01
-1.0000000000000000e+01 1.0000000000000000e+01
-2.0499999999999998e+00 2.0499999999999998e+00
ITEM: ATOMS id type x y z mux muy muz 
1 1 -4.37002 0.224548 0.0186821 -2.21797e-05 8.63842e-05 5.46108e-21 
2 1 0.343866 4.28684 0.032058 -2.21797e-05 8.63842e-05 5.46108e-21 
3 1 4.35908 0.348172 -0.001019 -2.21797e-05 8.63842e-05 5.46108e-21 
4 2 -5.18859 -2.65933 -0.00924229 -2.77246e-06 1.0798e-05 6.82635e-22 
5 2 0.396465 -2.67451 0.011594 -2.77246e-06 1.0798e-05 6.82635e-22 
6 2 5.19342 -2.56508 0.0309679 -2.77246e-06 1.0798e-05 6.82635e-22 
7 2 4.46233 4.61398 0.0110575 -2.77246e-06 1.0798e-05 6.82635e-22 
ITEM: TIMESTEP
4662
ITEM: NUMBER OF ATOMS
7
ITEM: BOX BOUNDS pp pp ff
-1.0000000000000000e+01 1.0000000000000000e+01
-1.0000000000000000e+01 1.0000000000000000e+01
-2.0499999999999998e+00 2.0499999999999998e+00
ITEM: ATOMS id type x y z mux muy muz 
1 1 -4.36655 0.280616 0.0206762 -6.50139e-05 -6.10521e-05 5.46108e-21 
2 1 0.413274 4.0618 -0.0430445 -6.50139e-05 -6.10521e-05 5.46108e-21 
3 1 4.32857 0.474795 -0.0276703 -6.50139e-05 -6.10521e-05 5.46108e-21 
4 2 -5.15045 -2.78355 -0.0196452 -8.12674e-06 -7.63152e-06 6.82635e-22 
5 2 0.460427 -2.62988 0.0597464 -8.12674e-06 -7.63152e-06 6.82635e-22 
6 2 5.15587 -2.43146 0.0589085 -8.12674e-06 -7.63152e-06 6.82635e-22 
7 2 4.44488 4.60024 -0.0269122 -8.12674e-06 -7.63152e-06 6.82635e-22 
ITEM: TIMESTEP
4995
ITEM: NUMBER OF ATOMS
7
ITEM: BOX BOUNDS pp pp ff
-1.0000000000000000e+01 1.0000000000000000e+01
-1.0000000000000000e+01 1.0000000000000000e+01
-2.0499999999999998e+00 2.0499999999999998e+00
ITEM: ATOMS id type x y z mux muy muz 
1 1 -4.46281 0.218163 0.0255955 8.48211e-05 -2.756e-05 5.46108e-21 
2 1 0.350654 3.99191 0.0178192 8.48211e-05 -2.756e-05 5.46108e-21 
3 1 4.23733 0.52246 0.00846685 8.48211e-05 -2.756e-05 5.46108e-21 
4 2 -5.10934 -2.75053 -0.00219672 1.06026e-05 -3.44501e-06 6.82635e-22 
5 2 0.459664 -2.64685 0.0167241 1.06026e-05 -3.44501e-06 6.82635e-22 
6 2 5.07569 -2.43061 -0.0014524 1.06026e-05 -3.44501e-06 6.82635e-22 
7 2 4.35962 4.57661 -0.0228688 1.06026e-05 -3.44501e-06 6.82635e-22 
ITEM: TIMESTEP
5328
ITEM: NUMBER OF ATOMS
7
ITEM: BOX BOUNDS pp pp ff
-1.0000000000000000e+01 1.0000000000000000e+01
-1.0000000000000000e+01 1.0000000000000000e+01
-2.0499999999999998e+00 2.0499999999999998e+00
ITEM: ATOMS id type x y z mux muy muz 
1 1 -4.39185 0.184515 -0.00175306 -1.67118e-05 8.76064e-05 5.46108e-21 
2 1 0.295314 4.10741 0.0313998 -1.67118e-05 8.76064e-05 5.46108e-21 
3 1 4.29234 0.501086 0.0164292 -1.67118e-05 8.76064e-05 5.46108e-21 
4 2 -5.21563 -2.68512 -0.039727 -2.08898e-06 1.09508e-05 6.82635e-22 
5 2 0.513381 -2.60881 0.0253075 -2.08898e-06 1.09508e-05 6.82635e-22 
6 2 5.20574 -2.40336 -0.0116869 -2.08898e-06 1.09508e-05 6.82635e-22 
7 2 4.28376 4.47323 -0.0088576 -2.08898e-06 1.09508e-05 6.82635e-22 
ITEM: TIMESTEP
5661
ITEM: NUMBER OF ATOMS
7
ITEM: BOX BOUNDS pp pp ff
-1.0000000000000000e+01 1.0000000000000000e+01
-1.0000000000000000e+01 1.0000000000000000e+01
-2.0499999999999998e+00 2.0499999999999998e+00
ITEM: ATOMS id type x y z mux muy muz 
1 1 -4.37489 0.139615 0.0297702 -6.87191e-05 -5.68494e-05 5.46108e-21 
2 1 0.314065 3.99334 0.00185991 -6.87191e-05 -5.68494e-05 5.46108e-21 
3 1 4.08825 0.525495 0.0219591 -6.87191e-05 -5.68494e-05 5.46108e-21 
4 2 -5.11179 -2.82593 0.0299115 -8.58989e-06 -7.10618e-06 6.82635e-22 
5 2 0.392071 -2.57463 0.0115726 -8.58989e-06 -7.10618e-06 6.82635e-22 
6 2 5.21275 -2.27793 0.0369558 -8.58989e-06 -7.10618e-06 6.82635e-22 
7 2 4.13986 4.4672 0.00651611 -8.58989e-06 -7.10618e-06 6.82635e-22 
ITEM: TIMESTEP
5994
ITEM: NUMBER OF ATOMS
7
ITEM: BOX BOUNDS pp pp ff
-1.0000000000000000e+01 1.0000000000000000e+01
-1.0000000000000000e+01 1.0000000000000000e+01
-2.0499999999999998e+00 2.0499999999999998e+00
ITEM: ATOMS id type x y z mux muy muz 
1 1 -4.34973 0.163256 0.0101856 8.29232e-05 -3.28316e-05 5.46108e-21 
2 1 0.375776 4.06144 -0.00904318 8.29232e-05 -3.28316e-05 5.46108e-21 
3 1 3.95266 0.574583 0.0430762 8.29232e-05 -3.28316e-05 5.46108e-21 
4 2 -4.97236 -2.7912 0.0367592 1.03654e-05 -4.10395e-06 6.82635e-22 
5 2 0.402766 -2.49019 -0.0559272 1.03654e-05 -4.10395e-06 6.82635e-22 
6 2 5.12924 -2.19777 -0.00360065 1.03654e-05 -4.10395e-06 6.82635e-22 
7 2 4.08694 4.44038 0.00935546 1.03654e-05 -4.10395e-06 6.82635e-22 
ITEM: TIMESTEP
6327
ITEM: NUMBER OF ATOMS
7
ITEM: BOX BOUNDS pp pp ff
-1.0000000000000000e+01 1.0000000000000000e+01
-1.0000000000000000e+01 1.0000000000000000e+01
-2.0499999999999998e+00 2.0499999999999998e+00
ITEM: ATOMS id type x y z mux muy muz 
1 1 -4.13758 0.165585 0.0132413 -1.1178e-05 8.84829e-05 5.46108e-21 
2 1 0.486846 3.97615 -0.0370998 -1.1178e-05 8.84829e-05 5.46108e-21 
3 1 3.80457 0.595261 -0.0357983 -1.1178e-05 8.84829e-05 5.46108e-21 
4 2 -4.9641 -2.74294 0.0189934 -1.39725e-06 1.10604e-05 6.82635e-22 
5 2 0.398809 -2.52826 -0.00675259 -1.39725e-06 1.10604e-05 6.82635e-22 
6 2 5.07604 -2.18109 0.0146064 -1.39725e-06 1.10604e-05 6.82635e-22 
7 2 3.92675 4.45229 0.0160522 -1.39725e-06 1.10604e-05 6.82635e-22 
ITEM: TIMESTEP
6660
ITEM: NUMBER OF ATOMS
7
ITEM: BOX BOUNDS pp pp ff
-1.0000000000000000e+01 1.0000000000000000e+01
-1.0000000000000000e+01 1.0000000000000000e+01
-2.0499999999999998e+00 2.0499999999999998e+00
ITEM: ATOMS id type x y z mux muy muz 
1 1 -4.18327 0.0910436 0.028662 -7.21531e-05 -5.24223e-05 5.46108e-21 
2 1 0.496071 3.91965 -0.0104661 -7.21531e-05 -5.24223e-05 5.46108e-21 
3 1 3.66775 0.702499 -0.0218214 -7.21531e-05 -5.24223e-05 5.46108e-21 
4 2 -4.96082 -2.85576 0.0186616 -9.01914e-06 -6.55279e-06 6.82635e-22 
5 2 0.32899 -2.55146 0.0532714 -9.01914e-06 -6.55279e-06 6.82635e-22 
6 2 5.18545 -2.15915 -0.0127903 -9.01914e-06 -6.55279e-06 6.82635e-22 
7 2 3.77203 4.4273 -0.0228848 -9.01914e-06 -6.55279e-06 6.82635e-22 
ITEM: TIMESTEP
6993
ITEM: NUMBER OF ATOMS
7
ITEM: BOX BOUNDS pp pp ff
-1.0000000000000000e+01 1.0000000000000000e+01
-1.0000000000000000e+01 1.0000000000000000e+01
-2.0499999999999998e+00 2.0499999999999998e+00
ITEM: ATOMS id type x y z mux muy muz 
1 1 -4.06177 0.0796258 -0.0137635 8.06981e-05 -3.79736e-05 5.46108e-21 
2 1 0.66401 3.77549 0.0323476 8.06981e-05 -3.79736e-05 5.46108e-21 
3 1 3.37496 0.799439 -0.041445 8.06981e-05 -3.79736e-05 5.46108e-21 
4 2 -4.82824 -2.81468 -0.0377885 1.00873e-05 -4.7467e-06 6.82635e-22 
5 2 0.318734 -2.35001 0.0117464 1.00873e-05 -4.7467e-06 6.82635e-22 
6 2 5.13967 -1.97621 0.0457055 1.00873e-05 -4.7467e-06 6.82635e-22 
7 2 3.7294 4.28763 0.0416802 1.00873e-05 -4.7467e-06 6.82635e-22 
ITEM: TIMESTEP
7326
ITEM: NUMBER OF ATOMS
7
ITEM: BOX BOUNDS pp pp ff
-1.0000000000000000e+01 1.0000000000000000e+01
-1.0000000000000000e+01 1.0000000000000000e+01
-2.0499999999999998e+00 2.0499999999999998e+00
ITEM: ATOMS id type x y z mux muy muz 
1 1 -4.00089 0.151657 0.0275673 -5.60005e-06 8.90102e-05 5.46108e-21 
2 1 0.643626 3.79318 0.0530204 -5.60005e-06 8.90102e-05 5.46108e-21 
3 1 3.38573 0.842611 0.0509235 -5.60005e-06 8.90102e-05 5.46108e-21 
4 2 -4.82851 -2.79889 0.0371496 -7.00006e-07 1.11263e-05 6.82635e-22 
5 2 0.361694 -2.43756 -0.0136852 -7.00006e-07 1.11263e-05 6.82635e-22 
6 2 5.06352 -1.81507 -0.0522782 -7.00006e-07 1.11263e-05 6.82635e-22 
7 2 3.66831 4.14377 -0.0437459 -7.00006e-07 1.11263e-05 6.82635e-22 
ITEM: TIMESTEP
7659
ITEM: NUMBER OF ATOMS
7
ITEM: BOX BOUNDS pp pp ff
-1.0000000000000000e+01 1.0000000000000000e+01
-1.0000000000000000e+01 1.0000000000000000e+01
-2.0499999999999998e+00 2.0499999999999998e+00
ITEM: ATOMS id type x y z mux muy muz 
1 1 -3.87297 0.159682 0.0361375 -7.53024e-05 -4.77883e-05 5.46108e-21 
2 1 0.623482 3.75171 0.051382 -7.53024e-05 -4.77883e-05 5.46108e-21 
3 1 3.45384 0.889255 -0.0168615 -7.53024e-05 -4.77883e-05 5.46108e-21 
4 2 -5.00082 -2.75062 0.0186166 -9.4128e-06 -5.97354e-06 6.82635e-22 
5 2 0.263417 -2.54505 -0.00891632 -9.4128e-06 -5.97354e-06 6.82635e-22 
6 2 5.0904 -1.81094 -0.0105128 -9.4128e-06 -5.97354e-06 6.82635e-22 
7 2 3.60739 4.0916 -0.00549763 -9.4128e-06 -5.97354e-06 6.82635e-22 
ITEM: TIMESTEP
7992
ITEM: NUMBER OF ATOMS
7
ITEM: BOX BOUNDS pp pp ff
-1.0000000000000000e+01 1.0000000000000000e+01
-1.0000000000000000e+01 1.0000000000000000e+01
-2.0499999999999998e+00 2.0499999999999998e+00
ITEM: ATOMS id type x y z mux muy muz 
1 1 -3.78315 0.0407057 -0.0413607 7.81544e-05 -4.29658e-05 5.46108e-21 
2 1 0.549726 3.76525 0.0422056 7.81544e-05 -4.29658e-05 5.46108e-21 
3 1 3.39737 0.950183 -0.0217949 7.81544e-05 -4.29658e-05 5.46108e-21 
4 2 -5.05537 -2.83172 -0.00952699 9.76931e-06 -5.37072e-06 6.82635e-22 
5 2 0.429745 -2.54867 -0.0166047 9.76931e-06 -5.37072e-06 6.82635e-22 
6 2 5.12296 -1.72708 -0.0530784 9.76931e-06 -5.37072e-06 6.82635e-22 
7 2 3.58827 3.99938 0.0571706 9.76931e-06 -5.37072e-06 6.82635e-22 
ITEM: TIMESTEP
8325
ITEM: NUMBER OF ATOMS
7
ITEM: BOX BOUNDS pp pp ff
-1.0000000000000000e+01 1.0000000000000000e+01
-1.0000000000000000e+01 1.0000000000000000e+01
-2.0499999999999998e+00 2.0499999999999998e+00
ITEM: ATOMS id type x y z mux muy muz 
1 1 -3.74816 -0.00339995 0.0318981 1.30668e-17 8.91862e-05 5.46108e-21 
2 1 0.558516 3.69738 -0.0459902 1.30668e-17 8.91862e-05 5.46108e-21 
3 1 3.44904 0.919809 0.0540013 1.30668e-17 8.91862e-05 5.46108e-21 
4 2 -5.00697 -2.71595 -0.0536012 1.63335e-18 1.11483e-05 6.82635e-22 
5 2 0.577485 -2.49153 0.041334 1.63335e-18 1.11483e-05 6.82635e-22 
6 2 4.99327 -1.67363 -0.0558767 1.63335e-18 1.11483e-05 6.82635e-22 
7 2 3.57096 3.91429 -0.0494227 1.63335e-18 1.11483e-05 6.82635e-22 
ITEM: TIMESTEP
8658
ITEM: NUMBER OF ATOMS
7
ITEM: BOX BOUNDS pp pp ff
-1.0000000000000000e+01 1.0000000000000000e+01
-1.0000000000000000e+01 1.0000000000000000e+01
-2.0499999999999998e+00 2.0499999999999998e+00
ITEM: ATOMS id type x y z mux muy muz 
1 1 -3.65247 -0.0550452 -0.000866381 -7.81544e-05 -4.29658e-05 5.46108e-21 
2 1 0.517008 3.60969 -0.0419539 -7.81544e-05 -4.29658e-05 5.46108e-21 
3 1 3.3963 0.880172 0.0554335 -7.81544e-05 -4.29658e-05 5.46108e-21 
4 2 -4.92716 -2.82052 -0.0176836 -9.76931e-06 -5.37072e-06 6.82635e-22 
5 2 0.587701 -2.36243 0.0442701 -9.76931e-06 -5.37072e-06 6.82635e-22 
6 2 4.97372 -1.68651 0.0385966 -9.76931e-06 -5.37072e-06 6.82635e-22 
7 2 3.54356 3.91703 0.00429679 -9.76931e-06 -5.37072e-06 6.82635e-22 
ITEM: TIMESTEP
8991
ITEM: NUMBER OF ATOMS
7
ITEM: BOX BOUNDS pp pp ff
-1.0000000000000000e+01 1.0000000000000000e+01
-1.0000000000000000e+01 1.0000000000000000e+01
-2.0499999999999998e+00 2.0499999999999998e+00
ITEM: ATOMS id type x y z mux muy muz 
1 1 -3.53753 -0.112526 -0.00119541 7.53024e-05 -4.77883e-05 5.46108e-21 
2 1 0.543168 3.55132 -0.0360757 7.53024e-05 -4.77883e-05 5.46108e-21 
3 1 3.5185 0.901502 0.0191859 7.53024e-05 -4.77883e-05 5.46108e-21 
4 2 -4.85486 -2.83281 -0.0415594 9.4128e-06 -5.97354e-06 6.82635e-22 
5 2 0.695107 -2.40014 -0.0193257 9.4128e-06 -5.97354e-06 6.82635e-22 
6 2 5.05089 -1.6771 0.00703184 9.4128e-06 -5.97354e-06 6.82635e-22 
7 2 3.51579 3.89146 0.0386448 9.4128e-06 -5.97354e-06 6.82635e-22 
ITEM: TIMESTEP
9324
ITEM: NUMBER OF ATOMS
7
ITEM: BOX BOUNDS pp pp ff
-1.0000000000000000e+01 1.0000000000000000e+01
-1.0000000000000000e+01 1.0000000000000000e+01
-2.0499999999999998e+00 2.0499999999999998e+00
ITEM: ATOMS id type x y z mux muy muz 
1 1 -3.4905 -0.111691 0.0328973 5.60005e-06 8.90102e-05 5.46108e-21 
2 1 0.387377 3.45158 0.050936 5.60005e-06 8.90102e-05 5.46108e-21 
3 1 3.42866 0.837814 0.0176709 5.60005e-06 8.90102e-05 5.46108e-21 
4 2 -4.89545 -2.76073 -0.0485062 7.00006e-07 1.11263e-05 6.82635e-22 
5 2 0.666005 -2.36144 0.0515183 7.00006e-07 1.11263e-05 6.82635e-22 
6 2 5.07807 -1.68276 0.0303755 7.00006e-07 1.11263e-05 6.82635e-22 
7 2 3.39608 3.9147 0.0504046 7.00006e-07 1.11263e-05 6.82635e-22 
ITEM: TIMESTEP
9657
ITEM: NUMBER OF ATOMS
7
ITEM: BOX BOUNDS pp pp ff
-1.0000000000000000e+01 1.0000000000000000e+01
-1.0000000000000000e+01 1.0000000000000000e+01
-2.0499999999999998e+00 2.0499999999999998e+00
ITEM: ATOMS id type x y z mux muy muz 
1 1 -3.42325 -0.0472963 -0.00129183 -8.06981e-05 -3.79736e-05 5.46108e-21 
2 1 0.442866 3.45896 0.010927 -8.06981e-05 -3.79736e-05 5.46108e-21 
3 1 3.51612 0.907837 0.0388484 -8.06981e-05 -3.79736e-05 5.46108e-21 
4 2 -4.78267 -2.74441 -0.00169795 -1.00873e-05 -4.7467e-06 6.82635e-22 
5 2 0.567679 -2.28885 -0.0238952 -1.00873e-05 -4.7467e-06 6.82635e-22 
6 2 5.09944 -1.65046 -0.0400421 -1.00873e-05 -4.7467e-06 6.82635e-22 
7 2 3.38845 3.96533 0.0140822 -1.00873e-05 -4.7467e-06 6.82635e-22 
ITEM: TIMESTEP
9990
ITEM: NUMBER OF ATOMS
7
ITEM: BOX BOUNDS pp pp ff
-1.0000000000000000e+01 1.0000000000000000e+01
-1.0000000000000000e+01 1.0000000000000000e+01
-2.0499999999999998e+00 2.0499999999999998e+00
ITEM: ATOMS id type x y z mux muy muz 
1 1 -3.39847 -0.116108 0.0242783 7.21531e-05 -5.24223e-05 5.46108e-21 
2 1 0.29036 3.40201 0.0354084 7.21531e-05 -5.24223e-05 5.46108e-21 
3 1 3.39075 0.856948 -0.0287547 7.21531e-05 -5.24223e-05 5.46108e-21 
4 2 -4.75484 -2.80257 0.0400054 9.01914e-06 -6.55279e-06 6.82635e-22 
5 2 0.589431 -2.21252 -0.0444196 9.01914e-06 -6.55279e-06 6.82635e-22 
6 2 5.11518 -1.60031 -0.0097535 9.01914e-06 -6.55279e-06 6.82635e-22 
7 2 3.41669 3.86157 -0.0217406 9.01914e-06 -6.55279e-06 6.82635e-22 
ITEM: TIMESTEP
10323
ITEM: NUMBER OF ATOMS
7
ITEM: BOX BOUNDS pp pp ff
-1.0000000000000000e+01 1.0000000000000000e+01
-1.0000000000000000e+01 1.0000000000000000e+01
-2.0499999999999998e+00 2.0499999999999998e+00
ITEM: ATOMS id type x y z mux muy muz 
1 1 -3.31363 0.0238809 0.0153199 1.1178e-05 8.84829e-05 5.46108e-21 
2 1 0.378944 3.41155 0.0119205 1.1178e-05 8.84829e-05 5.46108e-21 
3 1 3.48369 0.834573 -0.0186953 1.1178e-05 8.84829e-05 5.46108e-21 
4 2 -4.66984 -2.6784 0.0423925 1.39725e-06 1.10604e-05 6.82635e-22 
5 2 0.644606 -2.26388 -0.0357421 1.39725e-06 1.10604e-05 6.82635e-22 
6 2 5.1363 -1.67854 0.0181309 1.39725e-06 1.10604e-05 6.82635e-22 
7 2 3.34589 3.83035 -0.0289488 1.39725e-06 1.10604e-05 6.82635e-22 
ITEM: TIMESTEP
10656
ITEM: NUMBER OF ATOMS
7
ITEM: BOX BOUNDS pp pp ff
-1.0000000000000000e+01 1.0000000000000000e+01
-1.0000000000000000e+01 1.0000000000000000e+01
-2.0499999999999998e+00 2.0499999999999998e+00
ITEM: ATOMS id type x y z mux muy muz 
1 1 -3.19686 0.0281555 -0.0438848 -8.29232e-05 -3.28316e-05 5.46108e-21 
2 1 0.336222 3.37648 -0.0533747 -8.29232e-05 -3.28316e-05 5.46108e-21 
3 1 3.36765 0.797956 -0.037688 -8.29232e-05 -3.28316e-05 5.46108e-21 
4 2 -4.70348 -2.62623 -0.0247653 -1.03654e-05 -4.10395e-06 6.82635e-22 
5 2 0.69576 -2.1814 -0.00723733 -1.03654e-05 -4.10395e-06 6.82635e-22 
6 2 5.15359 -1.63627 0.00960393 -1.03654e-05 -4.10395e-06 6.82635e-22 
7 2 3.35772 3.8125 0.00145876 -1.03654e-05 -4.10395e-06 6.82635e-22 
ITEM: TIMESTEP
10989
ITEM: NUMBER OF ATOMS
7
ITEM: BOX BOUNDS pp pp ff
-1.0000000000000000e+01 1.0000000000000000e+01
-1.0000000000000000e+01 1.0000000000000000e+01
-2.0499999999999998e+00 2.0499999999999998e+00
ITEM: ATOMS id type x y z mux muy muz 
1 1 -3.01732 0.115221 0.0514782 6.87191e-05 -5.68494e-05 5.46108e-21 
2 1 0.200451 3.2218 -0.042346 6.87191e-05 -5.68494e-05 5.46108e-21 
3 1 3.32364 0.682827 -0.0565853 6.87191e-05 -5.68494e-05 5.46108e-21 
4 2 -4.6596 -2.60277 -0.0442156 8.58989e-06 -7.10618e-06 6.82635e-22 
5 2 0.76161 -2.02405 -0.0155297 8.58989e-06 -7.10618e-06 6.82635e-22 
6 2 5.16815 -1.71204 0.0105876 8.58989e-06 -7.10618e-06 6.82635e-22 
7 2 3.27663 3.73875 -0.0216103 8.58989e-06 -7.10618e-06 6.82635e-22 
ITEM: TIMESTEP
11322
ITEM: NUMBER OF ATOMS
7
ITEM: BOX BOUNDS pp pp ff
-1.0000000000000000e+01 1.0000000000000000e+01
-1.0000000000000000e+01 1.0000000000000000e+01
-2.0499999999999998e+00 2.0499999999999998e+00
ITEM: ATOMS id type x y z mux muy muz 
1 1 -2.73406 0.0528899 0.00530191 1.67118e-05 8.76064e-05 5.46108e-21 
2 1 0.01663 2.92419 0.00807319 1.67118e-05 8.76064e-05 5.46108e-21 
3 1 3.29118 0.642796 -0.051398 1.67118e-05 8.76064e-05 5.46108e-21 
4 2 -4.58177 -2.54508 0.0279776 2.08898e-06 1.09508e-05 6.82635e-22 
5 2 0.795986 -2.03045 0.0547755 2.08898e-06 1.09508e-05 6.82635e-22 
6 2 5.08245 -1.78313 0.0399052 2.08898e-06 1.09508e-05 6.82635e-22 
7 2 3.12017 3.62721 -0.0399937 2.08898e-06 1.09508e-05 6.82635e-22 
ITEM: TIMESTEP
11655
ITEM: NUMBER OF ATOMS
7
ITEM: BOX BOUNDS pp pp ff
-1.0000000000000000e+01 1.0000000000000000e+01
-1.0000000000000000e+01 1.0000000000000000e+01
-2.0499999999999998e+00 2.0499999999999998e+00
ITEM: ATOMS id type x y z mux muy muz 
1 1 -2.68345 -0.110649 0.0344091 -8.48211e-05 -2.756e-05 5.46108e-21 
2 1 0.00377102 2.90191 0.0223574 -8.48211e-05 -2.756e-05 5.46108e-21 
3 1 3.1937 0.52335 0.0406315 -8.48211e-05 -2.756e-05 5.46108e-21 
4 2 -4.48407 -2.69014 0.0545688 -1.06026e-05 -3.44501e-06 6.82635e-22 
5 2 0.724452 -1.90407 0.0459134 -1.06026e-05 -3.44501e-06 6.82635e-22 
6 2 5.12678 -1.74811 0.0512132 -1.06026e-05 -3.44501e-06 6.82635e-22 
7 2 3.11094 3.53111 -0.0499013 -1.06026e-05 -3.44501e-06 6.82635e-22 
ITEM: TIMESTEP
11988
ITEM: NUMBER OF ATOMS
7
ITEM: BOX BOUNDS pp pp ff
-1.0000000000000000e+01 1.0000000000000000e+01
-1.0000000000000000e+01 1.0000000000000000e+01
-2.0499999999999998e+00 2.0499999999999998e+00
ITEM: ATOMS id type x y z mux muy muz 
1 1 -2.61496 -0.178316 0.0460279 6.50139e-05 -6.10521e-05 5.46108e-21 
2 1 -0.0597729 2.91155 -0.0272089 6.50139e-05 -6.10521e-05 5.46108e-21 
3 1 3.13157 0.481466 0.053924 6.50139e-05 -6.10521e-05 5.46108e-21 
4 2 -4.43501 -2.54604 0.051192 8.12674e-06 -7.63152e-06 6.82635e-22 
5 2 0.83756 -1.77225 0.0245976 8.12674e-06 -7.63152e-06 6.82635e-22 
6 2 5.04132 -1.81916 0.0268632 8.12674e-06 -7.63152e-06 6.82635e-22 
7 2 3.01803 3.46928 0.0153059 8.12674e-06 -7.63152e-06 6.82635e-22 
ITEM: TIMESTEP
12321
ITEM: NUMBER OF ATOMS
7
ITEM: BOX BOUNDS pp pp ff
-1.0000000000000000e+01 1.0000000000000000e+01
-1.0000000000000000e+01 1.0000000000000000e+01
-2.0499999999999998e+00 2.0499999999999998e+00
ITEM: ATOMS id type x y z mux muy muz 
1 1 -2.48528 -0.208948 0.0447035 2.21797e-05 8.63842e-05 5.46108e-21 
2 1 -0.0450226 2.94084 0.0481103 2.21797e-05 8.63842e-05 5.46108e-21 
3 1 3.1001 0.467438 0.0423694 2.21797e-05 8.63842e-05 5.46108e-21 
4 2 -4.41496 -2.54337 0.0490684 2.77246e-06 1.0798e-05 6.82635e-22 
5 2 0.942708 -1.61941 0.0215677 2.77246e-06 1.0798e-05 6.82635e-22 
6 2 5.06487 -1.81308 0.03669 2.77246e-06 1.0798e-05 6.82635e-22 
7 2 3.07053 3.50847 0.0226686 2.77246e-06 1.0798e-05 6.82635e-22 
ITEM: TIMESTEP
12654
ITEM: NUMBER OF ATOMS
7
ITEM: BOX BOUNDS pp pp ff
-1.0000000000000000e+01 1.0000000000000000e+01
-1.0000000000000000e+01 1.0000000000000000e+01
-2.0499999999999998e+00 2.0499999999999998e+00
ITEM: ATOMS id type x y z mux muy muz 
1 1 -2.35329 -0.186168 0.0276926 -8.63842e-05 -2.21797e-05 5.46108e-21 
2 1 0.0324661 3.03887 -0.0140014 -8.63842e-05 -2.21797e-05 5.46108e-21 
3 1 3.06763 0.450176 0.0187925 -8.63842e-05 -2.21797e-05 5.46108e-21 
4 2 -4.26316 -2.49964 -0.00548951 -1.0798e-05 -2.77246e-06 6.82635e-22 
5 2 0.867341 -1.62245 -0.0264743 -1.0798e-05 -2.77246e-06 6.82635e-22 
6 2 5.03246 -1.82477 0.0126427 -1.0798e-05 -2.77246e-06 6.82635e-22 
7 2 3.0188 3.44173 -0.0343903 -1.0798e-05 -2.77246e-06 6.82635e-22 
ITEM: TIMESTEP
12987
ITEM: NUMBER OF ATOMS
7
ITEM: BOX BOUNDS pp pp ff
-1.0000000000000000e+01 1.0000000000000000e+01
-1.0000000000000000e+01 1.0000000000000000e+01
-2.0499999999999998e+00 2.0499999999999998e+00
ITEM: ATOMS id type x y z mux muy muz 
1 1 -2.36219 -0.226165 0.013564 6.10521e-05 -6.50139e-05 5.46108e-21 
2 1 -0.0378549 3.02884 -0.0605993 6.10521e-05 -6.50139e-05 5.46108e-21 
3 1 3.0379 0.481493 0.0516673 6.10521e-05 -6.50139e-05 5.46108e-21 
4 2 -4.26126 -2.53642 0.01765 7.63152e-06 -8.12674e-06 6.82635e-22 
5 2 0.823202 -1.58173 0.0592355 7.63152e-06 -8.12674e-06 6.82635e-22 
6 2 5.0709 -1.80767 0.0328845 7.63152e-06 -8.12674e-06 6.82635e-22 
7 2 2.92215 3.4902 -0.0374302 7.63152e-06 -8.12674e-06 6.82635e-22 
ITEM: TIMESTEP
13320
ITEM: NUMBER OF ATOMS
7
ITEM: BOX BOUNDS pp pp ff
-1.0000000000000000e+01 1.0000000000000000e+01
-1.0000000000000000e+01 1.0000000000000000e+01
-2.0499999999999998e+00 2.0499999999999998e+00
ITEM: ATOMS id type x y z mux muy muz 
1 1 -2.19209 -0.357487 -0.0170806 2.756e-05 8.48211e-05 5.46108e-21 
2 1 -0.074602 2.98753 -0.0338983 2.756e-05 8.48211e-05 5.46108e-21 
3 1 2.9941 0.414393 -0.0539338 2.756e-05 8.48211e-05 5.46108e-21 
4 2 -4.1846 -2.59908 -0.0406613 3.44501e-06 1.06026e-05 6.82635e-22 
5 2 0.740202 -1.55501 0.0475739 3.44501e-06 1.06026e-05 6.82635e-22 
6 2 5.00654 -1.83415 0.0181371 3.44501e-06 1.06026e-05 6.82635e-22 