ITEM: TIMESTEP
0
ITEM: NUMBER OF ATOMS
6
ITEM: BOX BOUNDS pp pp ff
-1.0000000000000000e+01 1.0000000000000000e+01
-1.0000000000000000e+01 1.0000000000000000e+01
-2.0499999999999998e+00 2.0499999999999998e+00
ITEM: ATOMS id type x y z mux muy muz 
1 1 -5 0 0 0 0 0 
2 1 0 5 0 0 0 0 
3 1 5 0 0 0 0 0 
4 2 -5 0 0 2 0 0 
5 2 0 5 0 0 2 0 
6 3 5 0 0 0 0 0 
ITEM: TIMESTEP
333
ITEM: NUMBER OF ATOMS
6
ITEM: BOX BOUNDS pp pp ff
-1.0000000000000000e+01 1.0000000000000000e+01
-1.0000000000000000e+01 1.0000000000000000e+01
-2.0499999999999998e+00 2.0499999999999998e+00
ITEM: ATOMS id type x y z mux muy muz 
1 1 -5.06184 0.00504476 -0.0149293 -0 0 0 
2 1 -0.135422 5.04102 -0.0118224 -0 0 0 
3 1 4.90413 0.0526209 -0.00643558 -0 0 0 
4 2 -5 0 0 2 0 0 
5 2 0 5 0 0 2 0 
6 3 5 0 0 0 0 0 
ITEM: TIMESTEP
666
ITEM: NUMBER OF ATOMS
6
ITEM: BOX BOUNDS pp pp ff
-1.0000000000000000e+01 1.0000000000000000e+01
-1.0000000000000000e+01 1.0000000000000000e+01
-2.0499999999999998e+00 2.0499999999999998e+00
ITEM: ATOMS id type x y z mux muy muz 
1 1 -5.08975 -0.0325141 0.051911 -0 -0 0 
2 1 -0.0398017 5.10481 -0.0112487 -0 -0 0 
3 1 4.80853 -0.0461894 0.0308532 -0 -0 0 
4 2 -5 0 0 2 0 0 
5 2 0 5 0 0 2 0 
6 3 5 0 0 0 0 0 
ITEM: TIMESTEP
999
ITEM: NUMBER OF ATOMS
6
ITEM: BOX BOUNDS pp pp ff
-1.0000000000000000e+01 1.0000000000000000e+01
-1.0000000000000000e+01 1.0000000000000000e+01
-2.0499999999999998e+00 2.0499999999999998e+00
ITEM: ATOMS id type x y z mux muy muz 
1 1 -5.00005 -0.143491 0.0103431 0 -0 0 
2 1 0.00337954 5.13197 -0.0121083 0 -0 0 
3 1 4.82025 -0.0823147 -0.00900036 0 -0 0 
4 2 -5 0 0 2 0 0 
5 2 0 5 0 0 2 0 
6 3 5 0 0 0 0 0 
ITEM: TIMESTEP
1332
ITEM: NUMBER OF ATOMS
6
ITEM: BOX BOUNDS pp pp ff
-1.0000000000000000e+01 1.0000000000000000e+01
-1.0000000000000000e+01 1.0000000000000000e+01
-2.0499999999999998e+00 2.0499999999999998e+00
ITEM: ATOMS id type x y z mux muy muz 
1 1 -5.01796 -0.0855836 -0.0251531 -0 0 0 
2 1 0.0232808 5.01553 -0.0438473 -0 0 0 
3 1 4.77853 0.0128424 0.0406165 -0 0 0 
4 2 -5 0 0 2 0 0 
5 2 0 5 0 0 2 0 
6 3 5 0 0 0 0 0 
ITEM: TIMESTEP
1665
ITEM: NUMBER OF ATOMS
6
ITEM: BOX BOUNDS pp pp ff
-1.0000000000000000e+01 1.0000000000000000e+01
-1.0000000000000000e+01 1.0000000000000000e+01
-2.0499999999999998e+00 2.0499999999999998e+00
ITEM: ATOMS id type x y z mux muy muz 
1 1 -4.96753 -0.175195 -0.0478139 -0 -0 0 
2 1 -0.0178478 4.98178 0.0297811 -0 -0 0 
3 1 4.84267 -0.00661815 0.0105329 -0 -0 0 
4 2 -5 0 0 2 0 0 
5 2 0 5 0 0 2 0 
6 3 5 0 0 0 0 0 
ITEM: TIMESTEP
1998
ITEM: NUMBER OF ATOMS
6
ITEM: BOX BOUNDS pp pp ff
-1.0000000000000000e+01 1.0000000000000000e+01
-1.0000000000000000e+01 1.0000000000000000e+01
-2.0499999999999998e+00 2.0499999999999998e+00
ITEM: ATOMS id type x y z mux muy muz 
1 1 -4.83341 -0.170858 0.0188147 0 -0 0 
2 1 0.0489089 4.76722 -0.0217515 0 -0 0 
3 1 4.88325 0.0159901 0.030113 0 -0 0 
4 2 -5 0 0 2 0 0 
5 2 0 5 0 0 2 0 
6 3 5 0 0 0 0 0 
ITEM: TIMESTEP
2331
ITEM: NUMBER OF ATOMS
6
ITEM: BOX BOUNDS pp pp ff
-1.0000000000000000e+01 1.0000000000000000e+01
-1.0000000000000000e+01 1.0000000000000000e+01
-2.0499999999999998e+00 2.0499999999999998e+00
ITEM: ATOMS id type x y z mux muy muz 
1 1 -4.86107 -0.119747 -0.0253765 -0 0 0 
2 1 -0.00324694 4.86965 0.055969 -0 0 0 
3 1 4.84933 0.0630158 -0.0466272 -0 0 0 
4 2 -5 0 0 2 0 0 
5 2 0 5 0 0 2 0 
6 3 5 0 0 0 0 0 
ITEM: TIMESTEP
2664
ITEM: NUMBER OF ATOMS
6
ITEM: BOX BOUNDS pp pp ff
-1.0000000000000000e+01 1.0000000000000000e+01
-1.0000000000000000e+01 1.0000000000000000e+01
-2.0499999999999998e+00 2.0499999999999998e+00
ITEM: ATOMS id type x y z mux muy muz 
1 1 -4.82037 -0.0670248 -0.0408792 -0 -0 0 
2 1 0.0900618 4.94462 -0.0263483 -0 -0 0 
3 1 4.75978 0.0860605 -0.0318109 -0 -0 0 
4 2 -5 0 0 2 0 0 
5 2 0 5 0 0 2 0 
6 3 5 0 0 0 0 0 
ITEM: TIMESTEP
2997
ITEM: NUMBER OF ATOMS
6
ITEM: BOX BOUNDS pp pp ff
-1.0000000000000000e+01 1.0000000000000000e+01
-1.0000000000000000e+01 1.0000000000000000e+01
-2.0499999999999998e+00 2.0499999999999998e+00
ITEM: ATOMS id type x y z mux muy muz 
1 1 -4.59521 -0.110209 0.0165568 0 -0 0 
2 1 0.0930325 4.9335 0.000632093 0 -0 0 
3 1 4.80327 0.0577639 -0.0459768 0 -0 0 
4 2 -5 0 0 2 0 0 
5 2 0 5 0 0 2 0 
6 3 5 0 0 0 0 0 
ITEM: TIMESTEP
3330
ITEM: NUMBER OF ATOMS
6
ITEM: BOX BOUNDS pp pp ff
-1.0000000000000000e+01 1.0000000000000000e+01
-1.0000000000000000e+01 1.0000000000000000e+01
-2.0499999999999998e+00 2.0499999999999998e+00
ITEM: ATOMS id type x y z mux muy muz 
1 1 -4.64395 -0.119691 0.0270606 -0 0 0 
2 1 0.0692987 4.88698 -0.0305348 -0 0 0 
3 1 4.97674 0.0277016 -0.00732505 -0 0 0 
4 2 -5 0 0 2 0 0 
5 2 0 5 0 0 2 0 
6 3 5 0 0 0 0 0 
ITEM: TIMESTEP
3663
ITEM: NUMBER OF ATOMS
6
ITEM: BOX BOUNDS pp pp ff
-1.0000000000000000e+01 1.0000000000000000e+01
-1.0000000000000000e+01 1.0000000000000000e+01
-2.0499999999999998e+00 2.0499999999999998e+00
ITEM: ATOMS id type x y z mux muy muz 
1 1 -4.64109 0.0101723 -0.0324932 -0 -0 0 
2 1 0.186627 4.93406 0.0396808 -0 -0 0 
3 1 4.93833 -0.0205365 -0.0490135 -0 -0 0 
4 2 -5 0 0 2 0 0 
5 2 0 5 0 0 2 0 
6 3 5 0 0 0 0 0 
ITEM: TIMESTEP
3996
ITEM: NUMBER OF ATOMS
6
ITEM: BOX BOUNDS pp pp ff
-1.0000000000000000e+01 1.0000000000000000e+01
-1.0000000000000000e+01 1.0000000000000000e+01
-2.0499999999999998e+00 2.0499999999999998e+00
ITEM: ATOMS id type x y z mux muy muz 
1 1 -4.67007 0.127064 -0.0116581 0 -0 0 
2 1 0.0859218 4.95084 -0.0171191 0 -0 0 
3 1 4.95179 -0.100331 -0.034535 0 -0 0 
4 2 -5 0 0 2 0 0 
5 2 0 5 0 0 2 0 
6 3 5 0 0 0 0 0 
ITEM: TIMESTEP
4329
ITEM: NUMBER OF ATOMS
6
ITEM: BOX BOUNDS pp pp ff
-1.0000000000000000e+01 1.0000000000000000e+01
-1.0000000000000000e+01 1.0000000000000000e+01
-2.0499999999999998e+00 2.0499999999999998e+00
ITEM: ATOMS id type x y z mux muy muz 
1 1 -4.71998 0.116223 -0.0354307 -0 0 0 
2 1 0.117405 4.95524 -0.00829815 -0 0 0 
3 1 4.90262 -0.0401071 0.028054 -0 0 0 
4 2 -5 0 0 2 0 0 
5 2 0 5 0 0 2 0 
6 3 5 0 0 0 0 0 
ITEM: TIMESTEP
4662
ITEM: NUMBER OF ATOMS
6
ITEM: BOX BOUNDS pp pp ff
-1.0000000000000000e+01 1.0000000000000000e+01
-1.0000000000000000e+01 1.0000000000000000e+01
-2.0499999999999998e+00 2.0499999999999998e+00
ITEM: ATOMS id type x y z mux muy muz 
1 1 -4.73176 -0.00486115 0.0479372 -0 -0 0 
2 1 0.0563425 4.93287 -0.0280564 -0 -0 0 
3 1 4.94248 -0.103512 0.0448726 -0 -0 0 
4 2 -5 0 0 2 0 0 
5 2 0 5 0 0 2 0 
6 3 5 0 0 0 0 0 
ITEM: TIMESTEP
4995
ITEM: NUMBER OF ATOMS
6
ITEM: BOX BOUNDS pp pp ff
-1.0000000000000000e+01 1.0000000000000000e+01
-1.0000000000000000e+01 1.0000000000000000e+01
-2.0499999999999998e+00 2.0499999999999998e+00
ITEM: ATOMS id type x y z mux muy muz 
1 1 -4.83898 0.0282419 0.00948694 0 -0 0 
2 1 0.0768249 4.89326 -0.0457684 0 -0 0 
3 1 4.92307 -0.0302608 -0.0114116 0 -0 0 
4 2 -5 0 0 2 0 0 
5 2 0 5 0 0 2 0 
6 3 5 0 0 0 0 0 
ITEM: TIMESTEP
5328
ITEM: NUMBER OF ATOMS
6
ITEM: BOX BOUNDS pp pp ff
-1.0000000000000000e+01 1.0000000000000000e+01
-1.0000000000000000e+01 1.0000000000000000e+01
-2.0499999999999998e+00 2.0499999999999998e+00
ITEM: ATOMS id type x y z mux muy muz 
1 1 -4.85923 0.0963902 0.0380298 -0 0 0 
2 1 0.124049 4.81274 -0.0456973 -0 0 0 
3 1 4.97925 -0.0624752 0.0352662 -0 0 0 
4 2 -5 0 0 2 0 0 
5 2 0 5 0 0 2 0 
6 3 5 0 0 0 0 0 
ITEM: TIMESTEP
5661
ITEM: NUMBER OF ATOMS
6
ITEM: BOX BOUNDS pp pp ff
-1.0000000000000000e+01 1.0000000000000000e+01
-1.0000000000000000e+01 1.0000000000000000e+01
-2.0499999999999998e+00 2.0499999999999998e+00
ITEM: ATOMS id type x y z mux muy muz 
1 1 -4.93024 0.150466 -0.0122701 -0 -0 0 
2 1 0.0940214 4.78018 -0.0233518 -0 -0 0 
3 1 4.98116 -0.000521223 -0.0126756 -0 -0 0 
4 2 -5 0 0 2 0 0 
5 2 0 5 0 0 2 0 
6 3 5 0 0 0 0 0 
ITEM: TIMESTEP
5994
ITEM: NUMBER OF ATOMS
6
ITEM: BOX BOUNDS pp pp ff
-1.0000000000000000e+01 1.0000000000000000e+01
-1.0000000000000000e+01 1.0000000000000000e+01
-2.0499999999999998e+00 2.0499999999999998e+00
ITEM: ATOMS id type x y z mux muy muz 
1 1 -4.95756 0.0616105 -0.0408517 0 -0 0 
2 1 0.0870546 4.92921 0.00368354 0 -0 0 
3 1 4.94069 -0.10106 -0.0407278 0 -0 0 
4 2 -5 0 0 2 0 0 
5 2 0 5 0 0 2 0 
6 3 5 0 0 0 0 0 
ITEM: TIMESTEP
6327
ITEM: NUMBER OF ATOMS
6
ITEM: BOX BOUNDS pp pp ff
-1.0000000000000000e+01 1.0000000000000000e+01
-1.0000000000000000e+01 1.0000000000000000e+01
-2.0499999999999998e+00 2.0499999999999998e+00
ITEM: ATOMS id type x y z mux muy muz 
1 1 -4.89484 0.064048 0.0342878 -0 0 0 
2 1 0.100246 4.8415 -0.0424832 -0 0 0 
3 1 4.9239 -0.230519 0.0181259 -0 0 0 
4 2 -5 0 0 2 0 0 
5 2 0 5 0 0 2 0 
6 3 5 0 0 0 0 0 
ITEM: TIMESTEP
6660
ITEM: NUMBER OF ATOMS
6
ITEM: BOX BOUNDS pp pp ff
-1.0000000000000000e+01 1.0000000000000000e+01
-1.0000000000000000e+01 1.0000000000000000e+01
-2.0499999999999998e+00 2.0499999999999998e+00
ITEM: ATOMS id type x y z mux muy muz 
1 1 -4.85497 0.0296932 -0.0147518 -0 -0 0 
2 1 0.0266961 4.861 -0.0259532 -0 -0 0 
3 1 4.88063 -0.176346 -0.0521985 -0 -0 0 
4 2 -5 0 0 2 0 0 
5 2 0 5 0 0 2 0 
6 3 5 0 0 0 0 0 
ITEM: TIMESTEP
6993
ITEM: NUMBER OF ATOMS
6
ITEM: BOX BOUNDS pp pp ff
-1.0000000000000000e+01 1.0000000000000000e+01
-1.0000000000000000e+01 1.0000000000000000e+01
-2.0499999999999998e+00 2.0499999999999998e+00
ITEM: ATOMS id type x y z mux muy muz 
1 1 -4.9058 0.0122369 0.0306167 0 -0 0 
2 1 0.142731 4.86037 -0.021639 0 -0 0 
3 1 4.85435 -0.136697 -0.0374399 0 -0 0 
4 2 -5 0 0 2 0 0 
5 2 0 5 0 0 2 0 
6 3 5 0 0 0 0 0 
ITEM: TIMESTEP
7326
ITEM: NUMBER OF ATOMS
6
ITEM: BOX BOUNDS pp pp ff
-1.0000000000000000e+01 1.0000000000000000e+01
-1.0000000000000000e+01 1.0000000000000000e+01
-2.0499999999999998e+00 2.0499999999999998e+00
ITEM: ATOMS id type x y z mux muy muz 
1 1 -4.85266 -0.00227166 -0.0197356 -0 0 0 
2 1 0.169331 4.8394 -0.00350521 -0 0 0 
3 1 4.87459 -0.0886421 0.0276205 -0 0 0 
4 2 -5 0 0 2 0 0 
5 2 0 5 0 0 2 0 
6 3 5 0 0 0 0 0 
ITEM: TIMESTEP
7659
ITEM: NUMBER OF ATOMS
6
ITEM: BOX BOUNDS pp pp ff
-1.0000000000000000e+01 1.0000000000000000e+01
-1.0000000000000000e+01 1.0000000000000000e+01
-2.0499999999999998e+00 2.0499999999999998e+00
ITEM: ATOMS id type x y z mux muy muz 
1 1 -4.78872 -0.0387142 0.0376542 -0 -0 0 
2 1 0.0994641 4.86419 -0.0457533 -0 -0 0 
3 1 4.89007 -0.0667414 -0.0196404 -0 -0 0 
4 2 -5 0 0 2 0 0 
5 2 0 5 0 0 2 0 
6 3 5 0 0 0 0 0 
ITEM: TIMESTEP
7992
ITEM: NUMBER OF ATOMS
6
ITEM: BOX BOUNDS pp pp ff
-1.0000000000000000e+01 1.0000000000000000e+01
-1.0000000000000000e+01 1.0000000000000000e+01
-2.0499999999999998e+00 2.0499999999999998e+00
ITEM: ATOMS id type x y z mux muy muz 
1 1 -4.7157 -0.0769947 0.0294701 0 -0 0 
2 1 0.0499283 4.87388 0.0424785 0 -0 0 
3 1 4.84643 0.00059198 0.0489989 0 -0 0 
4 2 -5 0 0 2 0 0 
5 2 0 5 0 0 2 0 
6 3 5 0 0 0 0 0 
ITEM: TIMESTEP
8325
ITEM: NUMBER OF ATOMS
6
ITEM: BOX BOUNDS pp pp ff
-1.0000000000000000e+01 1.0000000000000000e+01
-1.0000000000000000e+01 1.0000000000000000e+01
-2.0499999999999998e+00 2.0499999999999998e+00
ITEM: ATOMS id type x y z mux muy muz 
1 1 -4.75691 -0.0816241 0.00714597 0 0 0 
2 1 0.0168544 4.95849 -0.0479039 0 0 0 
3 1 4.89241 -0.0830383 0.0196976 0 0 0 
4 2 -5 0 0 2 0 0 
5 2 0 5 0 0 2 0 
6 3 5 0 0 0 0 0 
ITEM: TIMESTEP
8658
ITEM: NUMBER OF ATOMS
6
ITEM: BOX BOUNDS pp pp ff
-1.0000000000000000e+01 1.0000000000000000e+01
-1.0000000000000000e+01 1.0000000000000000e+01
-2.0499999999999998e+00 2.0499999999999998e+00
ITEM: ATOMS id type x y z mux muy muz 
1 1 -4.8608 -0.0073744 -0.0307846 -0 -0 0 
2 1 0.0578205 4.94599 -0.036865 -0 -0 0 
3 1 4.90566 -0.0549814 0.0208094 -0 -0 0 
4 2 -5 0 0 2 0 0 
5 2 0 5 0 0 2 0 
6 3 5 0 0 0 0 0 
ITEM: TIMESTEP
8991
ITEM: NUMBER OF ATOMS
6
ITEM: BOX BOUNDS pp pp ff
-1.0000000000000000e+01 1.0000000000000000e+01
-1.0000000000000000e+01 1.0000000000000000e+01
-2.0499999999999998e+00 2.0499999999999998e+00
ITEM: ATOMS id type x y z mux muy muz 
1 1 -4.98396 -0.0435833 -0.0542693 0 -0 0 
2 1 0.0444713 4.91111 -0.0460753 0 -0 0 
3 1 4.96745 -0.0162752 0.0433082 0 -0 0 
4 2 -5 0 0 2 0 0 
5 2 0 5 0 0 2 0 
6 3 5 0 0 0 0 0 
ITEM: TIMESTEP
9324
ITEM: NUMBER OF ATOMS
6
ITEM: BOX BOUNDS pp pp ff
-1.0000000000000000e+01 1.0000000000000000e+01
-1.0000000000000000e+01 1.0000000000000000e+01
-2.0499999999999998e+00 2.0499999999999998e+00
ITEM: ATOMS id type x y z mux muy muz 
1 1 -4.9864 -0.0347882 -0.029462 0 0 0 
2 1 0.0532818 4.97482 -0.0409996 0 0 0 
3 1 4.97538 0.0456647 0.0219062 0 0 0 
4 2 -5 0 0 2 0 0 
5 2 0 5 0 0 2 0 
6 3 5 0 0 0 0 0 
ITEM: TIMESTEP
9657
ITEM: NUMBER OF ATOMS
6
ITEM: BOX BOUNDS pp pp ff
-1.0000000000000000e+01 1.0000000000000000e+01
-1.0000000000000000e+01 1.0000000000000000e+01
-2.0499999999999998e+00 2.0499999999999998e+00
ITEM: ATOMS id type x y z mux muy muz 
1 1 -4.88421 -0.0890393 -0.00129466 -0 -0 0 
2 1 0.162629 5.11004 -0.0399148 -0 -0 0 
3 1 4.93667 0.0242787 0.00794062 -0 -0 0 
4 2 -5 0 0 2 0 0 
5 2 0 5 0 0 2 0 
6 3 5 0 0 0 0 0 
ITEM: TIMESTEP
9990
ITEM: NUMBER OF ATOMS
6
ITEM: BOX BOUNDS pp pp ff
-1.0000000000000000e+01 1.0000000000000000e+01
-1.0000000000000000e+01 1.0000000000000000e+01
-2.0499999999999998e+00 2.0499999999999998e+00
ITEM: ATOMS id type x y z mux muy muz 
1 1 -4.85457 -0.147817 -0.0145699 0 -0 0 
2 1 0.0951137 5.21674 0.0355713 0 -0 0 
3 1 4.99852 0.0564867 0.00499638 0 -0 0 
4 2 -5 0 0 2 0 0 
5 2 0 5 0 0 2 0 
6 3 5 0 0 0 0 0 
ITEM: TIMESTEP
10323
ITEM: NUMBER OF ATOMS
6
ITEM: BOX BOUNDS pp pp ff
-1.0000000000000000e+01 1.0000000000000000e+01
-1.0000000000000000e+01 1.0000000000000000e+01
-2.0499999999999998e+00 2.0499999999999998e+00
ITEM: ATOMS id type x y z mux muy muz 
1 1 -5.00445 -0.134041 -0.056943 0 0 0 
2 1 0.0603699 5.07695 0.0283807 0 0 0 
3 1 5.08662 0.0429131 -0.0468872 0 0 0 
4 2 -5 0 0 2 0 0 
5 2 0 5 0 0 2 0 
6 3 5 0 0 0 0 0 
ITEM: TIMESTEP
10656
ITEM: NUMBER OF ATOMS
6
ITEM: BOX BOUNDS pp pp ff
-1.0000000000000000e+01 1.0000000000000000e+01
-1.0000000000000000e+01 1.0000000000000000e+01
-2.0499999999999998e+00 2.0499999999999998e+00
ITEM: ATOMS id type x y z mux muy muz 
1 1 -5.04672 -0.182755 -0.052213 -0 -0 0 
2 1 0.0793189 5.19887 0.045478 -0 -0 0 
3 1 5.15774 0.0799781 0.00343819 -0 -0 0 
4 2 -5 0 0 2 0 0 
5 2 0 5 0 0 2 0 
6 3 5 0 0 0 0 0 
ITEM: TIMESTEP
10989
ITEM: NUMBER OF ATOMS
6
ITEM: BOX BOUNDS pp pp ff
-1.0000000000000000e+01 1.0000000000000000e+01
-1.0000000000000000e+01 1.0000000000000000e+01
-2.0499999999999998e+00 2.0499999999999998e+00
ITEM: ATOMS id type x y z mux muy muz 
1 1 -4.95708 -0.100474 -0.0179301 0 -0 0 
2 1 0.106129 5.17799 0.0467421 0 -0 0 
3 1 5.08668 0.160074 0.0523475 0 -0 0 
4 2 -5 0 0 2 0 0 
5 2 0 5 0 0 2 0 
6 3 5 0 0 0 0 0 
ITEM: TIMESTEP
11322
ITEM: NUMBER OF ATOMS
6
ITEM: BOX BOUNDS pp pp ff
-1.0000000000000000e+01 1.0000000000000000e+01
-1.0000000000000000e+01 1.0000000000000000e+01
-2.0499999999999998e+00 2.0499999999999998e+00
ITEM: ATOMS id type x y z mux muy muz 
1 1 -4.9532 0.055526 0.0480564 0 0 0 
2 1 0.0851065 5.25782 -0.02494 0 0 0 
3 1 5.06103 0.173319 0.0335177 0 0 0 
4 2 -5 0 0 2 0 0 
5 2 0 5 0 0 2 0 
6 3 5 0 0 0 0 0 
ITEM: TIMESTEP
11655
ITEM: NUMBER OF ATOMS
6
ITEM: BOX BOUNDS pp pp ff
-1.0000000000000000e+01 1.0000000000000000e+01
-1.0000000000000000e+01 1.0000000000000000e+01
-2.0499999999999998e+00 2.0499999999999998e+00
ITEM: ATOMS id type x y z mux muy muz 
1 1 -5.07642 0.0750479 0.0375659 -0 -0 0 
2 1 0.16353 5.23959 0.00280544 -0 -0 0 
3 1 5.10069 -0.00645174 -0.0402565 -0 -0 0 
4 2 -5 0 0 2 0 0 
5 2 0 5 0 0 2 0 
6 3 5 0 0 0 0 0 
ITEM: TIMESTEP
11988
ITEM: NUMBER OF ATOMS
6
ITEM: BOX BOUNDS pp pp ff
-1.0000000000000000e+01 1.0000000000000000e+01
-1.0000000000000000e+01 1.0000000000000000e+01
-2.0499999999999998e+00 2.0499999999999998e+00
ITEM: ATOMS id type x y z mux muy muz 
1 1 -5.09038 0.0408832 -0.000168841 0 -0 0 
2 1 0.275262 5.356 -0.0521819 0 -0 0 
3 1 5.09079 0.0549608 0.0115508 0 -0 0 
4 2 -5 0 0 2 0 0 
5 2 0 5 0 0 2 0 
6 3 5 0 0 0 0 0 
ITEM: TIMESTEP
12321
ITEM: NUMBER OF ATOMS
6
ITEM: BOX BOUNDS pp pp ff
-1.0000000000000000e+01 1.0000000000000000e+01
-1.0000000000000000e+01 1.0000000000000000e+01
-2.0499999999999998e+00 2.0499999999999998e+00
ITEM: ATOMS id type x y z mux muy muz 
1 1 -5.0747 0.136685 -0.04786 0 0 0 
2 1 0.190682 5.17458 0.00413563 0 0 0 
3 1 5.07113 -0.0158765 0.0152384 0 0 0 
4 2 -5 0 0 2 0 0 
5 2 0 5 0 0 2 0 
6 3 5 0 0 0 0 0 
ITEM: TIMESTEP
12654
ITEM: NUMBER OF ATOMS
6
ITEM: BOX BOUNDS pp pp ff
-1.0000000000000000e+01 1.0000000000000000e+01
-1.0000000000000000e+01 1.0000000000000000e+01
-2.0499999999999998e+00 2.0499999999999998e+00
ITEM: ATOMS id type x y z mux muy muz 
1 1 -5.12286 0.0931998 -0.00178681 -0 -0 0 
2 1 0.263567 5.16652 0.0532427 -0 -0 0 
3 1 5.14115 -0.0302988 -0.00097126 -0 -0 0 
4 2 -5 0 0 2 0 0 
5 2 0 5 0 0 2 0 
6 3 5 0 0 0 0 0 
ITEM: TIMESTEP
12987
ITEM: NUMBER OF ATOMS
6
ITEM: BOX BOUNDS pp pp ff
-1.0000000000000000e+01 1.0000000000000000e+01
-1.0000000000000000e+01 1.0000000000000000e+01
-2.0499999999999998e+00 2.0499999999999998e+00
ITEM: ATOMS id type x y z mux muy muz 
1 1 -5.16057 0.0278466 0.0313389 0 -0 0 
2 1 0.251917 5.08103 -0.0120551 0 -0 0 
3 1 5.14336 0.0322407 -0.0234477 0 -0 0 
4 2 -5 0 0 2 0 0 
5 2 0 5 0 0 2 0 
6 3 5 0 0 0 0 0 
ITEM: TIMESTEP
13320
ITEM: NUMBER OF ATOMS
6
ITEM: BOX BOUNDS pp pp ff
-1.0000000000000000e+01 1.0000000000000000e+01
-1.0000000000000000e+01 1.0000000000000000e+01
-2.0499999999999998e+00 2.0499999999999998e+00
ITEM: ATOMS id type x y z mux muy muz 
1 1 -5.15248 0.0654586 0.0400148 0 0 0 
2 1 0.18274 5.01852 -0.0408257 0 0 0 
3 1 5.19546 0.0619778 -0.0177978 0 0 0 
4 2 -5 0 0 2 0 0 
5 2 0 5 0 0 2 0 
6 3 5 0 0 0 0 0 
ITEM: TIMESTEP
13653
ITEM: NUMBER OF ATOMS
6
ITEM: BOX BOUNDS pp pp ff
-1.0000000000000000e+01 1.0000000000000000e+01
-1.0000000000000000e+01 1.0000000000000000e+01
-2.0499999999999998e+00 2.0499999999999998e+00
ITEM: ATOMS id type x y z mux muy muz 
1 1 -5.04189 -0.00618551 0.0261942 -0 -0 0 
2 1 0.160126 5.09191 0.0463752 -0 -0 0 
3 1 5.20285 -0.0494824 -0.0272361 -0 -0 0 
4 2 -5 0 0 2 0 0 
5 2 0 5 0 0 2 0 
6 3 5 0 0 0 0 0 
ITEM: TIMESTEP
13986
ITEM: NUMBER OF ATOMS
6
ITEM: BOX BOUNDS pp pp ff
-1.0000000000000000e+01 1.0000000000000000e+01
-1.0000000000000000e+01 1.0000000000000000e+01
-2.0499999999999998e+00 2.0499999999999998e+00
ITEM: ATOMS id type x y z mux muy muz 
1 1 -5.08735 -0.102162 0.0555662 0 -0 0 
2 1 0.248888 5.09434 -0.00607201 0 -0 0 
3 1 5.1525 -0.0622475 0.019274 0 -0 0 
4 2 -5 0 0 2 0 0 
5 2 0 5 0 0 2 0 
6 3 5 0 0 0 0 0 
ITEM: TIMESTEP
14319
ITEM: NUMBER OF ATOMS
6
ITEM: BOX BOUNDS pp pp ff
-1.0000000000000000e+01 1.0000000000000000e+01
-1.0000000000000000e+01 1.0000000000000000e+01
-2.0499999999999998e+00 2.0499999999999998e+00
ITEM: ATOMS id type x y z mux muy muz 
1 1 -5.07853 -0.0285992 -0.00960524 0 0 0 
2 1 0.154155 5.25409 0.00361357 0 0 0 
3 1 5.08333 -0.110258 -0.0462515 0 0 0 
4 2 -5 0 0 2 0 0 
5 2 0 5 0 0 2 0 
6 3 5 0 0 0 0 0 
ITEM: TIMESTEP
14652
ITEM: NUMBER OF ATOMS
6
ITEM: BOX BOUNDS pp pp ff
-1.0000000000000000e+01 1.0000000000000000e+01
-1.0000000000000000e+01 1.0000000000000000e+01
-2.0499999999999998e+00 2.0499999999999998e+00
ITEM: ATOMS id type x y z mux muy muz 
1 1 -5.03805 -0.115562 0.0380876 -0 -0 0 
2 1 0.0797536 5.21925 -0.0177074 -0 -0 0 
3 1 4.99546 -0.18934 0.0434404 -0 -0 0 
4 2 -5 0 0 2 0 0 
5 2 0 5 0 0 2 0 
6 3 5 0 0 0 0 0 
ITEM: TIMESTEP
14985
ITEM: NUMBER OF ATOMS
6
ITEM: BOX BOUNDS pp pp ff
-1.0000000000000000e+01 1.0000000000000000e+01
-1.0000000000000000e+01 1.0000000000000000e+01
-2.0499999999999998e+00 2.0499999999999998e+00
ITEM: ATOMS id type x y z mux muy muz 
1 1 -5.04263 -0.219275 -0.00399276 0 -0 0 
2 1 0.0827317 5.16376 0.0452709 0 -0 0 
3 1 4.99129 -0.153067 0.0185031 0 -0 0 
4 2 -5 0 0 2 0 0 
5 2 0 5 0 0 2 0 
6 3 5 0 0 0 0 0 
ITEM: TIMESTEP
15318
ITEM: NUMBER OF ATOMS
6
ITEM: BOX BOUNDS pp pp ff
-1.0000000000000000e+01 1.0000000000000000e+01
-1.0000000000000000e+01 1.0000000000000000e+01
-2.0499999999999998e+00 2.0499999999999998e+00
ITEM: ATOMS id type x y z mux muy muz 
1 1 -5.09056 -0.0845318 0.0384991 0 0 0 
2 1 0.121234 5.2004 0.0394772 0 0 0 
3 1 5.023 -0.0437391 0.0458962 0 0 0 
4 2 -5 0 0 2 0 0 
5 2 0 5 0 0 2 0 
6 3 5 0 0 0 0 0 
ITEM: TIMESTEP
15651
ITEM: NUMBER OF ATOMS
6
ITEM: BOX BOUNDS pp pp ff
-1.0000000000000000e+01 1.0000000000000000e+01
-1.0000000000000000e+01 1.0000000000000000e+01
-2.0499999999999998e+00 2.0499999999999998e+00
ITEM: ATOMS id type x y z mux muy muz 
1 1 -5.11596 -0.00625136 0.0451951 -0 -0 0 
2 1 0.115629 5.29328 0.0366031 -0 -0 0 
3 1 5.02253 0.00136508 0.0348174 -0 -0 0 
4 2 -5 0 0 2 0 0 
5 2 0 5 0 0 2 0 
6 3 5 0 0 0 0 0 
ITEM: TIMESTEP
15984
ITEM: NUMBER OF ATOMS
6
ITEM: BOX BOUNDS pp pp ff
-1.0000000000000000e+01 1.0000000000000000e+01
-1.0000000000000000e+01 1.0000000000000000e+01
-2.0499999999999998e+00 2.0499999999999998e+00
ITEM: ATOMS id type x y z mux muy muz 
1 1 -5.07899 -0.079387 -0.0111398 0 -0 0 
2 1 0.123663 5.31035 -0.0126283 0 -0 0 
3 1 4.95259 0.111023 -0.00699608 0 -0 0 
4 2 -5 0 0 2 0 0 
5 2 0 5 0 0 2 0 
6 3 5 0 0 0 0 0 
ITEM: TIMESTEP
16317
ITEM: NUMBER OF ATOMS
6
ITEM: BOX BOUNDS pp pp ff
-1.0000000000000000e+01 1.0000000000000000e+01
-1.0000000000000000e+01 1.0000000000000000e+01
-2.0499999999999998e+00 2.0499999999999998e+00
ITEM: ATOMS id type x y z mux muy muz 
1 1 -5.06474 -0.0322257 0.00212196 0 0 0 
2 1 0.0722994 5.2122 0.057912 0 0 0 
3 1 5.0319 0.107488 -0.0179705 0 0 0 
4 2 -5 0 0 2 0 0 
5 2 0 5 0 0 2 0 
6 3 5 0 0 0 0 0 
ITEM: TIMESTEP
16650
ITEM: NUMBER OF ATOMS
6
ITEM: BOX BOUNDS pp pp ff
-1.0000000000000000e+01 1.0000000000000000e+01
-1.0000000000000000e+01 1.0000000000000000e+01
-2.0499999999999998e+00 2.0499999999999998e+00
ITEM: ATOMS id type x y z mux muy muz 
1 1 -5.13628 -0.0505755 0.0425048 -0 0 0 
2 1 0.0380408 5.32873 0.00406016 -0 0 0 
3 1 4.98789 0.0775883 -0.0516407 -0 0 0 
4 2 -5 0 0 2 0 0 
5 2 0 5 0 0 2 0 
6 3 5 0 0 0 0 0 
ITEM: TIMESTEP
16983
ITEM: NUMBER OF ATOMS
6
ITEM: BOX BOUNDS pp pp ff
-1.0000000000000000e+01 1.0000000000000000e+01
-1.0000000000000000e+01 1.0000000000000000e+01
-2.0499999999999998e+00 2.0499999999999998e+00
ITEM: ATOMS id type x y z mux muy muz 
1 1 -5.20981 -0.0729266 0.0206344 0 -0 0 
2 1 0.026849 5.2756 0.0395133 0 -0 0 
3 1 4.97783 -0.0148823 -0.0212085 0 -0 0 
4 2 -5 0 0 2 0 0 
5 2 0 5 0 0 2 0 
6 3 5 0 0 0 0 0 
ITEM: TIMESTEP
17316
ITEM: NUMBER OF ATOMS
6
ITEM: BOX BOUNDS pp pp ff
-1.0000000000000000e+01 1.0000000000000000e+01
-1.0000000000000000e+01 1.0000000000000000e+01
-2.0499999999999998e+00 2.0499999999999998e+00
ITEM: ATOMS id type x y z mux muy muz 
1 1 -5.21371 -0.12847 0.0422204 0 0 0 
2 1 0.107602 5.20768 -0.0539868 0 0 0 
3 1 5.00509 -0.0929185 0.0323283 0 0 0 
4 2 -5 0 0 2 0 0 
5 2 0 5 0 0 2 0 
6 3 5 0 0 0 0 0 
ITEM: TIMESTEP
17649
ITEM: NUMBER OF ATOMS
6
ITEM: BOX BOUNDS pp pp ff
-1.0000000000000000e+01 1.0000000000000000e+01
-1.0000000000000000e+01 1.0000000000000000e+01
-2.0499999999999998e+00 2.0499999999999998e+00
ITEM: ATOMS id type x y z mux muy muz 
1 1 -5.13862 -0.06653 0.00171094 -0 0 0 
2 1 0.178557 5.15409 -0.0348513 -0 0 0 
3 1 4.95313 -0.00838283 -0.0441469 -0 0 0 
4 2 -5 0 0 2 0 0 
5 2 0 5 0 0 2 0 
6 3 5 0 0 0 0 0 
ITEM: TIMESTEP
17982
ITEM: NUMBER OF ATOMS
6
ITEM: BOX BOUNDS pp pp ff
-1.0000000000000000e+01 1.0000000000000000e+01
-1.0000000000000000e+01 1.0000000000000000e+01
-2.0499999999999998e+00 2.0499999999999998e+00
ITEM: ATOMS id type x y z mux muy muz 
1 1 -5.17808 -0.0605983 -0.0435193 0 -0 0 
2 1 0.0593874 5.16727 0.00831812 0 -0 0 
3 1 5.07312 -0.0298448 0.00043646 0 -0 0 
4 2 -5 0 0 2 0 0 
5 2 0 5 0 0 2 0 
6 3 5 0 0 0 0 0 
ITEM: TIMESTEP
18315
ITEM: NUMBER OF ATOMS
6
ITEM: BOX BOUNDS pp pp ff
-1.0000000000000000e+01 1.0000000000000000e+01
-1.0000000000000000e+01 1.0000000000000000e+01
-2.0499999999999998e+00 2.0499999999999998e+00
ITEM: ATOMS id type x y z mux muy muz 
1 1 -5.16736 -0.0473356 0.0418714 0 0 0 
2 1 0.0331577 5.20737 0.00888782 0 0 0 
3 1 5.09605 -0.0741799 -0.000797458 0 0 0 
4 2 -5 0 0 2 0 0 
5 2 0 5 0 0 2 0 
6 3 5 0 0 0 0 0 
ITEM: TIMESTEP
18648
ITEM: NUMBER OF ATOMS
6
ITEM: BOX BOUNDS pp pp ff
-1.0000000000000000e+01 1.0000000000000000e+01
-1.0000000000000000e+01 1.0000000000000000e+01
-2.0499999999999998e+00 2.0499999999999998e+00
ITEM: ATOMS id type x y z mux muy muz 
1 1 -5.15428 -0.0817034 0.0435359 -0 0 0 
2 1 0.0282884 5.23601 -0.0322542 -0 0 0 
3 1 5.09731 -0.0735959 -0.0506862 -0 0 0 
4 2 -5 0 0 2 0 0 
5 2 0 5 0 0 2 0 
6 3 5 0 0 0 0 0 
ITEM: TIMESTEP
18981
ITEM: NUMBER OF ATOMS
6
ITEM: BOX BOUNDS pp pp ff
-1.0000000000000000e+01 1.0000000000000000e+01
-1.0000000000000000e+01 1.0000000000000000e+01
-2.0499999999999998e+00 2.0499999999999998e+00
ITEM: ATOMS id type x y z mux muy muz 
1 1 -5.15499 -0.0488879 0.0285133 0 -0 0 
2 1 -0.0107847 5.23498 0.00403701 0 -0 0 
3 1 5.0396 -0.0688652 0.0390337 0 -0 0 
4 2 -5 0 0 2 0 0 
5 2 0 5 0 0 2 0 
6 3 5 0 0 0 0 0 
ITEM: TIMESTEP
19314
ITEM: NUMBER OF ATOMS
6
ITEM: BOX BOUNDS pp pp ff
-1.0000000000000000e+01 1.0000000000000000e+01
-1.0000000000000000e+01 1.0000000000000000e+01
-2.0499999999999998e+00 2.0499999999999998e+00
ITEM: ATOMS id type x y z mux muy muz 
1 1 -5.15484 -0.142043 -0.0268621 0 0 0 
2 1 -0.0115947 5.28039 -0.0112612 0 0 0 
3 1 5.08713 -0.00437553 0.00650015 0 0 0 
4 2 -5 0 0 2 0 0 
5 2 0 5 0 0 2 0 
6 3 5 0 0 0 0 0 
ITEM: TIMESTEP
19647
ITEM: NUMBER OF ATOMS
6
ITEM: BOX BOUNDS pp pp ff
-1.0000000000000000e+01 1.0000000000000000e+01
-1.0000000000000000e+01 1.0000000000000000e+01
-2.0499999999999998e+00 2.0499999999999998e+00
ITEM: ATOMS id type x y z mux muy muz 
1 1 -5.22124 -0.202436 -0.0430452 -0 0 0 
2 1 0.00800757 5.24664 0.0155327 -0 0 0 
3 1 5.09945 0.0606996 0.0276443 -0 0 0 
4 2 -5 0 0 2 0 0 
5 2 0 5 0 0 2 0 
6 3 5 0 0 0 0 0 
ITEM: TIMESTEP
19980
ITEM: NUMBER OF ATOMS
6
ITEM: BOX BOUNDS pp pp ff
-1.0000000000000000e+01 1.0000000000000000e+01
-1.0000000000000000e+01 1.0000000000000000e+01
-2.0499999999999998e+00 2.0499999999999998e+00
ITEM: ATOMS id type x y z mux muy muz 
1 1 -5.22571 -0.166352 -0.0158702 0 -0 0 
2 1 0.0327951 5.2794 -0.0124075 0 -0 0 
3 1 5.04863 0.0327299 0.0159308 0 -0 0 
4 2 -5 0 0 2 0 0 
5 2 0 5 0 0 2 0 
6 3 5 0 0 0 0 0 
ITEM: TIMESTEP
20313
ITEM: NUMBER OF ATOMS
6
ITEM: BOX BOUNDS pp pp ff
-1.0000000000000000e+01 1.0000000000000000e+01
-1.0000000000000000e+01 1.0000000000000000e+01
-2.0499999999999998e+00 2.0499999999999998e+00
ITEM: ATOMS id type x y z mux muy muz 
1 1 -5.16636 -0.257954 -0.0477967 0 0 0 
2 1 0.121318 5.27386 0.00741805 0 0 0 
3 1 5.09728 0.00996443 0.000160749 0 0 0 
4 2 -5 0 0 2 0 0 
5 2 0 5 0 0 2 0 
6 3 5 0 0 0 0 0 
ITEM: TIMESTEP
20646
ITEM: NUMBER OF ATOMS
6
ITEM: BOX BOUNDS pp pp ff
-1.0000000000000000e+01 1.0000000000000000e+01
-1.0000000000000000e+01 1.0000000000000000e+01
-2.0499999999999998e+00 2.0499999999999998e+00
ITEM: ATOMS id type x y z mux muy muz 
1 1 -5.07972 -0.201656 -0.0291421 -0 0 0 
2 1 0.163608 5.35545 -0.0074373 -0 0 0 
3 1 5.06363 -0.0507696 0.0323839 -0 0 0 
4 2 -5 0 0 2 0 0 
5 2 0 5 0 0 2 0 
6 3 5 0 0 0 0 0 
ITEM: TIMESTEP
20979
ITEM: NUMBER OF ATOMS
6
ITEM: BOX BOUNDS pp pp ff
-1.0000000000000000e+01 1.0000000000000000e+01
-1.0000000000000000e+01 1.0000000000000000e+01
-2.0499999999999998e+00 2.0499999999999998e+00
ITEM: ATOMS id type x y z mux muy muz 
1 1 -5.09326 -0.133429 0.02646 0 -0 0 
2 1 0.158578 5.30832 -0.00313133 0 -0 0 
3 1 4.9689 -0.0628991 0.0556227 0 -0 0 
4 2 -5 0 0 2 0 0 
5 2 0 5 0 0 2 0 
6 3 5 0 0 0 0 0 
ITEM: TIMESTEP
21312
ITEM: NUMBER OF ATOMS
6
ITEM: BOX BOUNDS pp pp ff
-1.0000000000000000e+01 1.0000000000000000e+01
-1.0000000000000000e+01 1.0000000000000000e+01
-2.0499999999999998e+00 2.0499999999999998e+00
ITEM: ATOMS id type x y z mux muy muz 
1 1 -5.01765 -0.135542 0.012696 0 0 0 
2 1 0.203271 5.33334 0.0222485 0 0 0 
3 1 5.08589 -0.0418931 -0.0179246 0 0 0 
4 2 -5 0 0 2 0 0 
5 2 0 5 0 0 2 0 
6 3 5 0 0 0 0 0 
ITEM: TIMESTEP
21645
ITEM: NUMBER OF ATOMS
6
ITEM: BOX BOUNDS pp pp ff
-1.0000000000000000e+01 1.0000000000000000e+01
-1.0000000000000000e+01 1.0000000000000000e+01
-2.0499999999999998e+00 2.0499999999999998e+00
ITEM: ATOMS id type x y z mux muy muz 
1 1 -5.00441 -0.112511 -0.0156977 -0 0 0 
2 1 0.148584 5.39785 0.0304761 -0 0 0 
3 1 5.19899 -0.0147095 -0.00642203 -0 0 0 
4 2 -5 0 0 2 0 0 
5 2 0 5 0 0 2 0 
6 3 5 0 0 0 0 0 
ITEM: TIMESTEP
21978
ITEM: NUMBER OF ATOMS
6
ITEM: BOX BOUNDS pp pp ff
-1.0000000000000000e+01 1.0000000000000000e+01
-1.0000000000000000e+01 1.0000000000000000e+01
-2.0499999999999998e+00 2.0499999999999998e+00
ITEM: ATOMS id type x y z mux muy muz 
1 1 -4.88673 -0.105348 -0.00195142 0 -0 0 
2 1 0.0639302 5.32975 -0.0461876 0 -0 0 
3 1 5.20911 -0.0411835 -0.04747 0 -0 0 
4 2 -5 0 0 2 0 0 
5 2 0 5 0 0 2 0 
6 3 5 0 0 0 0 0 
ITEM: TIMESTEP
22311
ITEM: NUMBER OF ATOMS
6
ITEM: BOX BOUNDS pp pp ff
-1.0000000000000000e+01 1.0000000000000000e+01
-1.0000000000000000e+01 1.0000000000000000e+01
-2.0499999999999998e+00 2.0499999999999998e+00
ITEM: ATOMS id type x y z mux muy muz 
1 1 -4.85699 -0.164922 -0.0439337 0 0 0 
2 1 0.0181977 5.33511 0.0136359 0 0 0 
3 1 5.09147 0.0885007 0.055373 0 0 0 
4 2 -5 0 0 2 0 0 
5 2 0 5 0 0 2 0 
6 3 5 0 0 0 0 0 
ITEM: TIMESTEP
22644
ITEM: NUMBER OF ATOMS
6
ITEM: BOX BOUNDS pp pp ff
-1.0000000000000000e+01 1.0000000000000000e+01
-1.0000000000000000e+01 1.0000000000000000e+01
-2.0499999999999998e+00 2.0499999999999998e+00
ITEM: ATOMS id type x y z mux muy muz 
1 1 -4.82913 -0.0863722 0.0454855 -0 0 0 
2 1 0.112253 5.2236 0.0316286 -0 0 0 
3 1 4.99352 0.0691097 0.00369618 -0 0 0 
4 2 -5 0 0 2 0 0 
5 2 0 5 0 0 2 0 
6 3 5 0 0 0 0 0 
ITEM: TIMESTEP
22977
ITEM: NUMBER OF ATOMS
6
ITEM: BOX BOUNDS pp pp ff
-1.0000000000000000e+01 1.0000000000000000e+01
-1.0000000000000000e+01 1.0000000000000000e+01
-2.0499999999999998e+00 2.0499999999999998e+00
ITEM: ATOMS id type x y z mux muy muz 
1 1 -4.90404 -0.0423544 -0.0185763 0 -0 0 
2 1 0.124726 5.08427 0.0580849 0 -0 0 
3 1 4.96614 -0.0294226 -0.0454531 0 -0 0 
4 2 -5 0 0 2 0 0 
5 2 0 5 0 0 2 0 
6 3 5 0 0 0 0 0 
ITEM: TIMESTEP
23310
ITEM: NUMBER OF ATOMS
6
ITEM: BOX BOUNDS pp pp ff
-1.0000000000000000e+01 1.0000000000000000e+01
-1.0000000000000000e+01 1.0000000000000000e+01
-2.0499999999999998e+00 2.0499999999999998e+00
ITEM: ATOMS id type x y z mux muy muz 