This is the initial atom setup of bidisperse/test_particles.lmpdata
7 atoms 
2 atom types 
0 bonds 
0 bond types 
-10.0 10.0 xlo xhi 
-10.0 10.0 ylo yhi 
-2.05 2.05 zlo zhi 

Atoms

1	 1	 -5	 0	 0	 4	 0.0017657440443523084	 0.0	 0	 0	 0	 1	 1 #atom id|type|x0|y0|z0|d|rho|m|mx|my|mz|chi|trap_id
2	 1	 0	 5	 0	 4	 0.0017657440443523084	 0.0	 0	 0	 0	 1	 2 #atom id|type|x0|y0|z0|d|rho|m|mx|my|mz|chi|trap_id
3	 1	 5	 0	 0	 4	 0.0017657440443523084	 0.0	 0	 0	 0	 1	 3 #atom id|type|x0|y0|z0|d|rho|m|mx|my|mz|chi|trap_id
4	 2	 -5	 -3	 0	 2	 0.014125952354818467	 0.0	 0	 0	 0	 1	 4 #atom id|type|x0|y0|z0|d|rho|m|mx|my|mz|chi|trap_id
5	 2	 0	 -3	 0	 2	 0.014125952354818467	 0.0	 0	 0	 0	 1	 5 #atom id|type|x0|y0|z0|d|rho|m|mx|my|mz|chi|trap_id
6	 2	 5	 -3	 0	 2	 0.014125952354818467	 0.0	 0	 0	 0	 1	 6 #atom id|type|x0|y0|z0|d|rho|m|mx|my|mz|chi|trap_id
7	 2	 5	 5	 0	 2	 0.014125952354818467	 0.0	 0	 0	 0	 1	 7 #atom id|type|x0|y0|z0|d|rho|m|mx|my|mz|chi|trap_id

PairIJ Coeffs

1 1 lj/cut/dipole/cut 0.01 3.563594872561357 4 20
1 2 lj/cut/dipole/cut 0.01 2.672696154421018 3 20
2 2 lj/cut/dipole/cut 0.01 1.7817974362806785 2 20

