This is the initial atom setup of bidisperse/test_traps.lmpdata
6 atoms 
3 atom types 
3 ellipsoids
3 bonds 
3 bond types 
-10.0 10.0 xlo xhi 
-10.0 10.0 ylo yhi 
-2.05 2.05 zlo zhi 

Atoms

1	 1	 -5	 0	 0	 1	 0.0017657440443523084	 0.0	 0	 0	 0	 1	 1 #atom_id|type|x0|y0|z0|e_flag|rho|m|mx|my|mz|chi|trap_id
2	 1	 0	 5	 0	 1	 0.0017657440443523084	 0.0	 0	 0	 0	 1	 2 #atom_id|type|x0|y0|z0|e_flag|rho|m|mx|my|mz|chi|trap_id
3	 1	 5	 0	 0	 1	 0.0017657440443523084	 0.0	 0	 0	 0	 1	 3 #atom_id|type|x0|y0|z0|e_flag|rho|m|mx|my|mz|chi|trap_id
4	 2	 -5	 0	 0	 0	 1	 0	 2	 0	 0	 0	 1 #trap id|type|x0|y0|z0|e_flag|null|0|dx|dy|dz|0|atom_id
5	 2	 0	 5	 0	 0	 1	 0	 0	 2	 0	 0	 2 #trap id|type|x0|y0|z0|e_flag|null|0|dx|dy|dz|0|atom_id
6	 3	 5	 0	 0	 0	 1	 0	 0	 0	 0	 0	 3 #trap id|type|x0|y0|z0|e_flag|null|0|dx|dy|dz|0|atom_id

Bonds

1 1 4 1
2 2 5 2
3 3 6 3

Bond Coeffs

1  0.0002999999999999999 0.0
2  0.0002999999999999999 0.0
3  0.0002999999999999999 0.0

Ellipsoids

1, 4, 4, 4, 0.7946525985836641, 0.16670476889628766, 0.5267794631985486, -0.2514759724978002, #atom_id|shapex|shapey|shapez|quatw|quati|quatj|quatk
2, 4, 4, 4, 0.8612989704595007, -0.06351190806498562, 0.4916832412788588, 0.11125606169941805, #atom_id|shapex|shapey|shapez|quatw|quati|quatj|quatk
3, 4, 4, 4, 0.3885389871482516, 0.36651880287818517, 0.17204964086959168, -0.827707885476028, #atom_id|shapex|shapey|shapez|quatw|quati|quatj|quatk

PairIJ Coeffs

1 1 lj/cut/dipole/cut 0.01 3.563594872561357 4 20
1 2 none
1 3 none
2 2 none
2 3 none
3 3 none

