units micro
atom_style hybrid sphere paramagnet bond
boundary p p f

neighbor 4.0 nsq
pair_style hybrid lj/cut/dipole/cut 1 20
bond_style biharmonic

### ---Create Particles and Region--- ###
read_data bidisperse/test_particles.lmpdata
  orthogonal box = (-10 -10 -2.05) to (10 10 2.05)
  1 by 1 by 1 MPI processor grid
  reading atoms ...
  7 atoms
  0 = max # of 1-2 neighbors
  0 = max # of 1-3 neighbors
  0 = max # of 1-4 neighbors
  1 = max # of special neighbors
  special bonds CPU = 3.91006e-05 secs
  read_data CPU = 0.000928879 secs
group Atoms type 1
3 atoms in group Atoms

group Atoms type 2
7 atoms in group Atoms
mass * 1

### ---Variables--- ###

## magnetic field
variable Bmag atom 7.984361693573345e-06
variable freq atom 9.999999999999999e-05
variable theta atom 1.5707963267948966
variable phi atom 0.0

variable fieldx atom v_Bmag*cos(v_freq*time*2*PI+v_phi)*sin(v_theta)
variable fieldy atom v_Bmag*sin(v_freq*time*2*PI+v_phi)*sin(v_theta)
variable fieldz atom v_Bmag*cos(v_theta)

### ---Fixes--- ###

fix 	1 Atoms setdipole v_fieldx v_fieldy v_fieldz 0
fix 	2 Atoms bd 300 0.001 206744

fix     3 Atoms addforce 0 0 -0.0
fix 	6 Atoms wall/lj126 zlo EDGE 0.01 1.7817974362806785  2 zhi EDGE 0.01 1.7817974362806785  2

### ---Run Commands--- ###
timestep 	100.0
dump 	3 all custom 333 bidisperse/test_particles.lammpstrj id type x	 y	 z	 mux	 muy	 muz
thermo_style 	custom step atoms
thermo 	100
run 	300000
Neighbor list info ...
  update every 1 steps, delay 10 steps, check yes
  max neighbors/atom: 2000, page size: 100000
  master list distance cutoff = 24
  ghost atom cutoff = 24
  2 neighbor lists, perpetual/occasional/extra = 2 0 0
  (1) pair lj/cut/dipole/cut, perpetual, half/full from (2)
      attributes: half, newton on
      pair build: halffull/newton
      stencil: none
      bin: none
  (2) fix setdipole, perpetual
      attributes: full, newton on
      pair build: full/nsq
      stencil: none
      bin: none
Per MPI rank memory allocation (min/avg/max) = 7.321 | 7.321 | 7.321 Mbytes
Step Atoms 
       0        7 
     100        7 
     200        7 
     300        7 
     400        7 
     500        7 
     600        7 
     700        7 
     800        7 
     900        7 
    1000        7 
    1100        7 
    1200        7 
    1300        7 
    1400        7 
    1500        7 
    1600        7 
    1700        7 
    1800        7 
    1900        7 
    2000        7 
    2100        7 
    2200        7 
    2300        7 
    2400        7 
    2500        7 
    2600        7 
    2700        7 
    2800        7 
    2900        7 
    3000        7 
    3100        7 
    3200        7 
    3300        7 
    3400        7 
    3500        7 
    3600        7 
    3700        7 
    3800        7 
    3900        7 
    4000        7 
    4100        7 
    4200        7 
    4300        7 
    4400        7 
    4500        7 
    4600        7 
    4700        7 
    4800        7 
    4900        7 
    5000        7 
    5100        7 
    5200        7 
    5300        7 
    5400        7 
    5500        7 
    5600        7 
    5700        7 
    5800        7 
    5900        7 
    6000        7 
    6100        7 
    6200        7 
    6300        7 
    6400        7 
    6500        7 
    6600        7 
    6700        7 
    6800        7 
    6900        7 
    7000        7 
    7100        7 
    7200        7 
    7300        7 
    7400        7 
    7500        7 
    7600        7 
    7700        7 
    7800        7 
    7900        7 
    8000        7 
    8100        7 
    8200        7 
    8300        7 
    8400        7 
    8500        7 
    8600        7 
    8700        7 
    8800        7 
    8900        7 
    9000        7 
    9100        7 
    9200        7 
    9300        7 
    9400        7 
    9500        7 
    9600        7 
    9700        7 
    9800        7 
    9900        7 
   10000        7 
   10100        7 
   10200        7 
   10300        7 
   10400        7 
   10500        7 
   10600        7 
   10700        7 
   10800        7 
   10900        7 
   11000        7 
   11100        7 
   11200        7 
   11300        7 
   11400        7 
   11500        7 
   11600        7 
   11700        7 
   11800        7 
   11900        7 
   12000        7 
   12100        7 
   12200        7 
   12300        7 
   12400        7 
   12500        7 
   12600        7 
   12700        7 
   12800        7 
   12900        7 
   13000        7 
   13100        7 
   13200        7 
   13300        7 
   13400        7 
   13500        7 
   13600        7 
   13700        7 
   13800        7 
   13900        7 
   14000        7 
   14100        7 
   14200        7 
   14300        7 
   14400        7 
   14500        7 
   14600        7 
   14700        7 
   14800        7 
   14900        7 
   15000        7 
   15100        7 
   15200        7 
   15300        7 
   15400        7 
   15500        7 
   15600        7 
   15700        7 
   15800        7 
   15900        7 
   16000        7 
   16100        7 
   16200        7 
   16300        7 
   16400        7 
   16500        7 
   16600        7 
   16700        7 
   16800        7 
   16900        7 
   17000        7 
   17100        7 
   17200        7 
   17300        7 
   17400        7 
   17500        7 
   17600        7 
   17700        7 
   17800        7 
   17900        7 
   18000        7 
   18100        7 
   18200        7 
   18300        7 
   18400        7 
   18500        7 
   18600        7 
   18700        7 
   18800        7 
   18900        7 
   19000        7 
   19100        7 
   19200        7 
   19300        7 
   19400        7 
   19500        7 
   19600        7 
   19700        7 
   19800        7 
   19900        7 
   20000        7 
   20100        7 
   20200        7 
   20300        7 
   20400        7 
   20500        7 
   20600        7 
   20700        7 
   20800        7 
   20900        7 
   21000        7 
   21100        7 
   21200        7 
   21300        7 
   21400        7 
   21500        7 
   21600        7 
   21700        7 
   21800        7 
   21900        7 
   22000        7 
   22100        7 
   22200        7 
   22300        7 
   22400        7 
   22500        7 
   22600        7 
   22700        7 
   22800        7 
   22900        7 
   23000        7 
   23100        7 
   23200        7 
   23300        7 
   23400        7 
   23500        7 
   23600        7 
   23700        7 
   23800        7 
   23900        7 
   24000        7 
   24100        7 
   24200        7 
   24300        7 
   24400        7 
   24500        7 
   24600        7 
   24700        7 
   24800        7 
   24900        7 
   25000        7 
   25100        7 
   25200        7 
   25300        7 
   25400        7 
   25500        7 
   25600        7 
   25700        7 
   25800        7 
   25900        7 
   26000        7 
   26100        7 
   26200        7 
   26300        7 
   26400        7 
   26500        7 
   26600        7 
   26700        7 
   26800        7 
   26900        7 
   27000        7 
   27100        7 
   27200        7 
   27300        7 
   27400        7 
   27500        7 
   27600        7 
   27700        7 
   27800        7 
   27900        7 
   28000        7 
   28100        7 
   28200        7 
   28300        7 
   28400        7 
   28500        7 
   28600        7 
   28700        7 
   28800        7 
   28900        7 
   29000        7 
   29100        7 
   29200        7 
   29300        7 
   29400        7 
   29500        7 
   29600        7 
   29700        7 
   29800        7 
   29900        7 
   30000        7 
   30100        7 
   30200        7 
   30300        7 
   30400        7 
   30500        7 
   30600        7 
   30700        7 
   30800        7 
   30900        7 
   31000        7 
   31100        7 
   31200        7 
   31300        7 
   31400        7 
   31500        7 
   31600        7 
   31700        7 
   31800        7 
   31900        7 
   32000        7 
   32100        7 
   32200        7 
   32300        7 
   32400        7 
   32500        7 
   32600        7 
   32700        7 
   32800        7 
   32900        7 
   33000        7 
   33100        7 
   33200        7 
   33300        7 
   33400        7 
   33500        7 
   33600        7 
   33700        7 
   33800        7 
   33900        7 
   34000        7 
   34100        7 
   34200        7 
   34300        7 
   34400        7 
   34500        7 
   34600        7 
   34700        7 
   34800        7 
   34900        7 
   35000        7 
   35100        7 
   35200        7 
   35300        7 
   35400        7 
   35500        7 
   35600        7 
   35700        7 
   35800        7 
   35900        7 
   36000        7 
   36100        7 
   36200        7 
   36300        7 
   36400        7 
   36500        7 
   36600        7 
   36700        7 
   36800        7 
   36900        7 
   37000        7 
   37100        7 
   37200        7 
   37300        7 
   37400        7 
   37500        7 
   37600        7 
   37700        7 
   37800        7 
   37900        7 
   38000        7 
   38100        7 
   38200        7 
   38300        7 
   38400        7 
   38500        7 
   38600        7 
   38700        7 
   38800        7 
   38900        7 
   39000        7 
   39100        7 
   39200        7 
   39300        7 
   39400        7 
   39500        7 
   39600        7 
   39700        7 
   39800        7 
   39900        7 
   40000        7 
   40100        7 
   40200        7 
   40300        7 
   40400        7 
   40500        7 
   40600        7 
   40700        7 
   40800        7 
   40900        7 
   41000        7 
   41100        7 
   41200        7 
   41300        7 
   41400        7 
   41500        7 
   41600        7 
   41700        7 
   41800        7 
   41900        7 
   42000        7 
   42100        7 
   42200        7 
   42300        7 
   42400        7 
   42500        7 
   42600        7 
   42700        7 
   42800        7 
   42900        7 
   43000        7 
   43100        7 
   43200        7 
   43300        7 
   43400        7 
   43500        7 
   43600        7 
   43700        7 
   43800        7 
   43900        7 
   44000        7 
   44100        7 
   44200        7 
   44300        7 
   44400        7 
   44500        7 
   44600        7 
   44700        7 
   44800        7 
   44900        7 
   45000        7 
   45100        7 
   45200        7 
   45300        7 
   45400        7 
   45500        7 
   45600        7 
   45700        7 
   45800        7 
   45900        7 
   46000        7 
   46100        7 
   46200        7 
   46300        7 
   46400        7 
   46500        7 
   46600        7 
   46700        7 
   46800        7 
   46900        7 
   47000        7 
   47100        7 
   47200        7 
   47300        7 
   47400        7 
   47500        7 
   47600        7 
   47700        7 
   47800        7 
   47900        7 
   48000        7 
   48100        7 
   48200        7 
   48300        7 
   48400        7 
   48500        7 
   48600        7 
   48700        7 
   48800        7 
   48900        7 
   49000        7 
   49100        7 
   49200        7 
   49300        7 
   49400        7 
   49500        7 
   49600        7 
   49700        7 
   49800        7 
   49900        7 
   50000        7 
   50100        7 
   50200        7 
   50300        7 
   50400        7 
   50500        7 
   50600        7 
   50700        7 
   50800        7 
   50900        7 
   51000        7 
   51100        7 
   51200        7 
   51300        7 
   51400        7 
   51500        7 
   51600        7 
   51700        7 
   51800        7 
   51900        7 
   52000        7 
   52100        7 
   52200        7 
   52300        7 
   52400        7 
   52500        7 
   52600        7 
   52700        7 
   52800        7 
   52900        7 
   53000        7 
   53100        7 
   53200        7 
   53300        7 
   53400        7 
   53500        7 
   53600        7 
   53700        7 
   53800        7 
   53900        7 
   54000        7 
   54100        7 
   54200        7 
   54300        7 
   54400        7 
   54500        7 
   54600        7 
   54700        7 
   54800        7 
   54900        7 
   55000        7 
   55100        7 
   55200        7 
   55300        7 
   55400        7 
   55500        7 
   55600        7 
   55700        7 
   55800        7 
   55900        7 
   56000        7 
   56100        7 
   56200        7 
   56300        7 
   56400        7 
   56500        7 
   56600        7 
   56700        7 
   56800        7 
   56900        7 
   57000        7 
   57100        7 
   57200        7 
   57300        7 
   57400        7 
   57500        7 
   57600        7 
   57700        7 
   57800        7 
   57900        7 
   58000        7 
   58100        7 
   58200        7 
   58300        7 
   58400        7 
   58500        7 
   58600        7 
   58700        7 
   58800        7 
   58900        7 
   59000        7 
   59100        7 
   59200        7 
   59300        7 
   59400        7 
   59500        7 
   59600        7 
   59700        7 
   59800        7 
   59900        7 
   60000        7 
   60100        7 
   60200        7 
   60300        7 
   60400        7 
   60500        7 
   60600        7 
   60700        7 
   60800        7 
   60900        7 
   61000        7 
   61100        7 
   61200        7 
   61300        7 
   61400        7 
   61500        7 
   61600        7 
   61700        7 
   61800        7 
   61900        7 
   62000        7 
   62100        7 
   62200        7 
   62300        7 
   62400        7 
   62500        7 
   62600        7 
   62700        7 
   62800        7 
   62900        7 
   63000        7 
   63100        7 
   63200        7 
   63300        7 
   63400        7 
   63500        7 
   63600        7 
   63700        7 
   63800        7 
   63900        7 
   64000        7 
   64100        7 
   64200        7 
   64300        7 
   64400        7 
   64500        7 
   64600        7 
   64700        7 
   64800        7 
   64900        7 
   65000        7 
   65100        7 
   65200        7 
   65300        7 
   65400        7 
   65500        7 
   65600        7 
   65700        7 
   65800        7 
   65900        7 
   66000        7 
   66100        7 
   66200        7 
   66300        7 
   66400        7 
   66500        7 
   66600        7 
   66700        7 
   66800        7 
   66900        7 
   67000        7 
   67100        7 
   67200        7 
   67300        7 
   67400        7 
   67500        7 
   67600        7 
   67700        7 
   67800        7 
   67900        7 
   68000        7 
   68100        7 
   68200        7 
   68300        7 
   68400        7 
   68500        7 
   68600        7 
   68700        7 
   68800        7 
   68900        7 
   69000        7 
   69100        7 
   69200        7 
   69300        7 
   69400        7 
   69500        7 
   69600        7 
   69700        7 
   69800        7 
   69900        7 
   70000        7 
   70100        7 
   70200        7 
   70300        7 
   70400        7 
   70500        7 
   70600        7 
   70700        7 
   70800        7 
   70900        7 
   71000        7 
   71100        7 
   71200        7 
   71300        7 
   71400        7 
   71500        7 
   71600        7 
   71700        7 
   71800        7 
   71900        7 
   72000        7 
   72100        7 
   72200        7 
   72300        7 
   72400        7 
   72500        7 
   72600        7 
   72700        7 
   72800        7 
   72900        7 
   73000        7 
   73100        7 
   73200        7 
   73300        7 
   73400        7 
   73500        7 
   73600        7 
   73700        7 
   73800        7 
   73900        7 
   74000        7 
   74100        7 
   74200        7 
   74300        7 
   74400        7 
   74500        7 
   74600        7 
   74700        7 
   74800        7 
   74900        7 
   75000        7 
   75100        7 
   75200        7 
   75300        7 
   75400        7 
   75500        7 
   75600        7 
   75700        7 
   75800        7 
   75900        7 
   76000        7 
   76100        7 
   76200        7 
   76300        7 
   76400        7 
   76500        7 
   76600        7 
   76700        7 
   76800        7 
   76900        7 
   77000        7 
   77100        7 
   77200        7 
   77300        7 
   77400        7 
   77500        7 
   77600        7 
   77700        7 
   77800        7 
   77900        7 
   78000        7 
   78100        7 
   78200        7 
   78300        7 
   78400        7 
   78500        7 
   78600        7 
   78700        7 
   78800        7 
   78900        7 
   79000        7 
   79100        7 
   79200        7 
   79300        7 
   79400        7 
   79500        7 
   79600        7 
   79700        7 
   79800        7 
   79900        7 
   80000        7 
   80100        7 
   80200        7 
   80300        7 
   80400        7 
   80500        7 
   80600        7 
   80700        7 
   80800        7 
   80900        7 
   81000        7 
   81100        7 
   81200        7 
   81300        7 
   81400        7 
   81500        7 
   81600        7 
   81700        7 
   81800        7 
   81900        7 
   82000        7 
   82100        7 
   82200        7 
   82300        7 
   82400        7 
   82500        7 
   82600        7 
   82700        7 
   82800        7 
   82900        7 
   83000        7 
   83100        7 
   83200        7 
   83300        7 
   83400        7 
   83500        7 
   83600        7 
   83700        7 
   83800        7 
   83900        7 
   84000        7 
   84100        7 
   84200        7 
   84300        7 
   84400        7 
   84500        7 
   84600        7 
   84700        7 
   84800        7 
   84900        7 
   85000        7 
   85100        7 
   85200        7 
   85300        7 
   85400        7 
   85500        7 
   85600        7 
   85700        7 
   85800        7 
   85900        7 
   86000        7 
   86100        7 
   86200        7 
   86300        7 
   86400        7 
   86500        7 
   86600        7 
   86700        7 
   86800        7 
   86900        7 
   87000        7 
   87100        7 
   87200        7 
   87300        7 
   87400        7 
   87500        7 
   87600        7 
   87700        7 
   87800        7 
   87900        7 
   88000        7 
   88100        7 
   88200        7 
   88300        7 
   88400        7 
   88500        7 
   88600        7 
   88700        7 
   88800        7 
   88900        7 
   89000        7 
   89100        7 
   89200        7 
   89300        7 
   89400        7 
   89500        7 
   89600        7 
   89700        7 
   89800        7 
   89900        7 
   90000        7 
   90100        7 
   90200        7 
   90300        7 
   90400        7 
   90500        7 
   90600        7 
   90700        7 
   90800        7 
   90900        7 
   91000        7 
   91100        7 
   91200        7 
   91300        7 
   91400        7 
   91500        7 
   91600        7 
   91700        7 
   91800        7 
   91900        7 
   92000        7 
   92100        7 
   92200        7 
   92300        7 
   92400        7 
   92500        7 
   92600        7 
   92700        7 
   92800        7 
   92900        7 
   93000        7 
   93100        7 
   93200        7 
   93300        7 
   93400        7 
   93500        7 
   93600        7 
   93700        7 
   93800        7 
   93900        7 
   94000        7 
   94100        7 
   94200        7 
   94300        7 
   94400        7 
   94500        7 
   94600        7 
   94700        7 
   94800        7 
   94900        7 
   95000        7 
   95100        7 
   95200        7 
   95300        7 
   95400        7 
   95500        7 
   95600        7 
   95700        7 
   95800        7 
   95900        7 
   96000        7 
   96100        7 
   96200        7 
   96300        7 
   96400        7 
   96500        7 
   96600        7 
   96700        7 
   96800        7 
   96900        7 
   97000        7 
   97100        7 
   97200        7 
   97300        7 
   97400        7 
   97500        7 
   97600        7 
   97700        7 
   97800        7 
   97900        7 
   98000        7 
   98100        7 
   98200        7 
   98300        7 
   98400        7 
   98500        7 
   98600        7 
   98700        7 
   98800        7 
   98900        7 
   99000        7 
   99100        7 
   99200        7 
   99300        7 
   99400        7 
   99500        7 
   99600        7 
   99700        7 
   99800        7 
   99900        7 
  100000        7 
  100100        7 
  100200        7 
  100300        7 
  100400        7 
  100500        7 
  100600        7 
  100700        7 
  100800        7 
  100900        7 
  101000        7 
  101100        7 
  101200        7 
  101300        7 
  101400        7 
  101500        7 
  101600        7 
  101700        7 
  101800        7 
  101900        7 
  102000        7 
  102100        7 
  102200        7 
  102300        7 
  102400        7 
  102500        7 
  102600        7 
  102700        7 
  102800        7 
  102900        7 
  103000        7 
  103100        7 
  103200        7 
  103300        7 
  103400        7 
  103500        7 
  103600        7 
  103700        7 
  103800        7 
  103900        7 
  104000        7 
  104100        7 
  104200        7 
  104300        7 
  104400        7 
  104500        7 
  104600        7 
  104700        7 
  104800        7 
  104900        7 
  105000        7 
  105100        7 
  105200        7 
  105300        7 
  105400        7 
  105500        7 
  105600        7 
  105700        7 
  105800        7 
  105900        7 
  106000        7 
  106100        7 
  106200        7 
  106300        7 
  106400        7 
  106500        7 
  106600        7 
  106700        7 
  106800        7 
  106900        7 
  107000        7 
  107100        7 
  107200        7 
  107300        7 
  107400        7 
  107500        7 
  107600        7 
  107700        7 
  107800        7 
  107900        7 
  108000        7 
  108100        7 
  108200        7 
  108300        7 
  108400        7 
  108500        7 
  108600        7 
  108700        7 
  108800        7 
  108900        7 
  109000        7 
  109100        7 
  109200        7 
  109300        7 
  109400        7 
  109500        7 
  109600        7 
  109700        7 
  109800        7 
  109900        7 
  110000        7 
  110100        7 
  110200        7 
  110300        7 
  110400        7 
  110500        7 
  110600        7 
  110700        7 
  110800        7 
  110900        7 
  111000        7 
  111100        7 
  111200        7 
  111300        7 
  111400        7 
  111500        7 
  111600        7 
  111700        7 
  111800        7 
  111900        7 
  112000        7 
  112100        7 
  112200        7 
  112300        7 
  112400        7 
  112500        7 
  112600        7 
  112700        7 
  112800        7 
  112900        7 
  113000        7 
  113100        7 
  113200        7 
  113300        7 
  113400        7 
  113500        7 
  113600        7 
  113700        7 
  113800        7 
  113900        7 
  114000        7 
  114100        7 
  114200        7 
  114300        7 
  114400        7 
  114500        7 
  114600        7 
  114700        7 
  114800        7 
  114900        7 
  115000        7 
  115100        7 
  115200        7 
  115300        7 
  115400        7 
  115500        7 
  115600        7 
  115700        7 
  115800        7 
  115900        7 
  116000        7 
  116100        7 
  116200        7 
  116300        7 
  116400        7 
  116500        7 
  116600        7 
  116700        7 
  116800        7 
  116900        7 
  117000        7 
  117100        7 
  117200        7 
  117300        7 
  117400        7 
  117500        7 
  117600        7 
  117700        7 
  117800        7 
  117900        7 
  118000        7 
  118100        7 
  118200        7 
  118300        7 
  118400        7 
  118500        7 
  118600        7 
  118700        7 
  118800        7 
  118900        7 
  119000        7 
  119100        7 
  119200        7 
  119300        7 
  119400        7 
  119500        7 
  119600        7 
  119700        7 
  119800        7 
  119900        7 
  120000        7 
  120100        7 
  120200        7 
  120300        7 
  120400        7 
  120500        7 
  120600        7 
  120700        7 
  120800        7 
  120900        7 
  121000        7 
  121100        7 
  121200        7 
  121300        7 
  121400        7 
  121500        7 
  121600        7 
  121700        7 
  121800        7 
  121900        7 
  122000        7 
  122100        7 
  122200        7 
  122300        7 
  122400        7 
  122500        7 
  122600        7 
  122700        7 
  122800        7 
  122900        7 
  123000        7 
  123100        7 
  123200        7 
  123300        7 
  123400        7 
  123500        7 
  123600        7 
  123700        7 
  123800        7 
  123900        7 
  124000        7 
  124100        7 
  124200        7 
  124300        7 
  124400        7 
  124500        7 
  124600        7 
  124700        7 
  124800        7 
  124900        7 
  125000        7 
  125100        7 
  125200        7 
  125300        7 
  125400        7 
  125500        7 
  125600        7 
  125700        7 
  125800        7 
  125900        7 
  126000        7 
  126100        7 
  126200        7 
  126300        7 
  126400        7 
  126500        7 
  126600        7 
  126700        7 
  126800        7 
  126900        7 
  127000        7 
  127100        7 
  127200        7 
  127300        7 
  127400        7 
  127500        7 
  127600        7 
  127700        7 
  127800        7 
  127900        7 
  128000        7 
  128100        7 
  128200        7 
  128300        7 
  128400        7 
  128500        7 
  128600        7 
  128700        7 
  128800        7 
  128900        7 
  129000        7 
  129100        7 
  129200        7 
  129300        7 
  129400        7 
  129500        7 
  129600        7 
  129700        7 
  129800        7 
  129900        7 
  130000        7 
  130100        7 
  130200        7 
  130300        7 
  130400        7 
  130500        7 
  130600        7 
  130700        7 
  130800        7 
  130900        7 
  131000        7 
  131100        7 
  131200        7 
  131300        7 
  131400        7 
  131500        7 
  131600        7 
  131700        7 
  131800        7 
  131900        7 
  132000        7 
  132100        7 
  132200        7 
  132300        7 
  132400        7 
  132500        7 
  132600        7 
  132700        7 
  132800        7 
  132900        7 
  133000        7 
  133100        7 
  133200        7 
  133300        7 
  133400        7 
  133500        7 
  133600        7 
  133700        7 
  133800        7 
  133900        7 
  134000        7 
  134100        7 
  134200        7 
  134300        7 
  134400        7 
  134500        7 
  134600        7 
  134700        7 
  134800        7 
  134900        7 
  135000        7 
  135100        7 
  135200        7 
  135300        7 
  135400        7 
  135500        7 
  135600        7 
  135700        7 
  135800        7 
  135900        7 
  136000        7 
  136100        7 
  136200        7 
  136300        7 
  136400        7 
  136500        7 
  136600        7 
  136700        7 
  136800        7 
  136900        7 
  137000        7 
  137100        7 
  137200        7 
  137300        7 
  137400        7 
  137500        7 
  137600        7 
  137700        7 
  137800        7 
  137900        7 
  138000        7 
  138100        7 
  138200        7 
  138300        7 
  138400        7 
  138500        7 
  138600        7 
  138700        7 
  138800        7 
  138900        7 
  139000        7 
  139100        7 
  139200        7 
  139300        7 
  139400        7 
  139500        7 
  139600        7 
  139700        7 
  139800        7 
  139900        7 
  140000        7 
  140100        7 
  140200        7 
  140300        7 
  140400        7 
  140500        7 
  140600        7 
  140700        7 
  140800        7 
  140900        7 
  141000        7 
  141100        7 
  141200        7 
  141300        7 
  141400        7 
  141500        7 
  141600        7 
  141700        7 
  141800        7 
  141900        7 
  142000        7 
  142100        7 
  142200        7 
  142300        7 
  142400        7 
  142500        7 
  142600        7 
  142700        7 
  142800        7 
  142900        7 
  143000        7 
  143100        7 
  143200        7 
  143300        7 
  143400        7 
  143500        7 
  143600        7 
  143700        7 
  143800        7 
  143900        7 
  144000        7 
  144100        7 
  144200        7 
  144300        7 
  144400        7 
  144500        7 
  144600        7 
  144700        7 
  144800        7 
  144900        7 
  145000        7 
  145100        7 
  145200        7 
  145300        7 
  145400        7 
  145500        7 
  145600        7 
  145700        7 
  145800        7 
  145900        7 
  146000        7 
  146100        7 
  146200        7 
  146300        7 
  146400        7 
  146500        7 
  146600        7 
  146700        7 
  146800        7 
  146900        7 
  147000        7 
  147100        7 
  147200        7 
  147300        7 
  147400        7 
  147500        7 
  147600        7 
  147700        7 
  147800        7 
  147900        7 
  148000        7 
  148100        7 
  148200        7 
  148300        7 
  148400        7 
  148500        7 
  148600        7 
  148700        7 
  148800        7 
  148900        7 
  149000        7 
  149100        7 
  149200        7 
  149300        7 
  149400        7 
  149500        7 
  149600        7 
  149700        7 
  149800        7 
  149900        7 
  150000        7 
  150100        7 
  150200        7 
  150300        7 
  150400        7 
  150500        7 
  150600        7 
  150700        7 
  150800        7 
  150900        7 
  151000        7 
  151100        7 
  151200        7 
  151300        7 
  151400        7 
  151500        7 
  151600        7 
  151700        7 
  151800        7 
  151900        7 
  152000        7 
  152100        7 
  152200        7 
  152300        7 
  152400        7 
  152500        7 
  152600        7 
  152700        7 
  152800        7 
  152900        7 
  153000        7 
  153100        7 
  153200        7 
  153300        7 
  153400        7 
  153500        7 
  153600        7 
  153700        7 
  153800        7 
  153900        7 
  154000        7 
  154100        7 
  154200        7 
  154300        7 
  154400        7 
  154500        7 
  154600        7 
  154700        7 
  154800        7 
  154900        7 
  155000        7 
  155100        7 
  155200        7 
  155300        7 
  155400        7 
  155500        7 
  155600        7 
  155700        7 
  155800        7 
  155900        7 
  156000        7 
  156100        7 
  156200        7 
  156300        7 
  156400        7 
  156500        7 
  156600        7 
  156700        7 
  156800        7 
  156900        7 
  157000        7 
  157100        7 
  157200        7 
  157300        7 
  157400        7 
  157500        7 
  157600        7 
  157700        7 
  157800        7 
  157900        7 
  158000        7 
  158100        7 
  158200        7 
  158300        7 
  158400        7 
  158500        7 
  158600        7 
  158700        7 
  158800        7 
  158900        7 
  159000        7 
  159100        7 
  159200        7 
  159300        7 
  159400        7 
  159500        7 
  159600        7 
  159700        7 
  159800        7 
  159900        7 
  160000        7 
  160100        7 
  160200        7 
  160300        7 
  160400        7 
  160500        7 
  160600        7 
  160700        7 
  160800        7 
  160900        7 
  161000        7 
  161100        7 
  161200        7 
  161300        7 
  161400        7 
  161500        7 
  161600        7 
  161700        7 
  161800        7 
  161900        7 
  162000        7 
  162100        7 
  162200        7 
  162300        7 
  162400        7 
  162500        7 
  162600        7 
  162700        7 
  162800        7 
  162900        7 
  163000        7 
  163100        7 
  163200        7 
  163300        7 
  163400        7 
  163500        7 
  163600        7 
  163700        7 
  163800        7 
  163900        7 
  164000        7 
  164100        7 
  164200        7 
  164300        7 
  164400        7 
  164500        7 
  164600        7 
  164700        7 
  164800        7 
  164900        7 
  165000        7 
  165100        7 
  165200        7 
  165300        7 
  165400        7 
  165500        7 
  165600        7 
  165700        7 
  165800        7 
  165900        7 
  166000        7 
  166100        7 
  166200        7 
  166300        7 
  166400        7 
  166500        7 
  166600        7 
  166700        7 
  166800        7 
  166900        7 
  167000        7 
  167100        7 
  167200        7 
  167300        7 
  167400        7 
  167500        7 
  167600        7 
  167700        7 
  167800        7 
  167900        7 
  168000        7 
  168100        7 
  168200        7 
  168300        7 
  168400        7 
  168500        7 
  168600        7 
  168700        7 
  168800        7 
  168900        7 
  169000        7 
  169100        7 
  169200        7 
  169300        7 
  169400        7 
  169500        7 
  169600        7 
  169700        7 
  169800        7 
  169900        7 
  170000        7 
  170100        7 
  170200        7 
  170300        7 
  170400        7 
  170500        7 
  170600        7 
  170700        7 
  170800        7 
  170900        7 
  171000        7 
  171100        7 
  171200        7 
  171300        7 
  171400        7 
  171500        7 
  171600        7 
  171700        7 
  171800        7 
  171900        7 
  172000        7 
  172100        7 
  172200        7 
  172300        7 
  172400        7 
  172500        7 
  172600        7 
  172700        7 
  172800        7 
  172900        7 
  173000        7 
  173100        7 
  173200        7 
  173300        7 
  173400        7 
  173500        7 
  173600        7 
  173700        7 
  173800        7 
  173900        7 
  174000        7 
  174100        7 
  174200        7 
  174300        7 
  174400        7 
  174500        7 
  174600        7 
  174700        7 
  174800        7 
  174900        7 
  175000        7 
  175100        7 
  175200        7 
  175300        7 
  175400        7 
  175500        7 
  175600        7 
  175700        7 
  175800        7 
  175900        7 
  176000        7 
  176100        7 
  176200        7 
  176300        7 
  176400        7 
  176500        7 
  176600        7 
  176700        7 
  176800        7 
  176900        7 
  177000        7 
  177100        7 
  177200        7 
  177300        7 
  177400        7 
  177500        7 
  177600        7 
  177700        7 
  177800        7 
  177900        7 
  178000        7 
  178100        7 
  178200        7 
  178300        7 
  178400        7 
  178500        7 
  178600        7 
  178700        7 
  178800        7 
  178900        7 
  179000        7 
  179100        7 
  179200        7 
  179300        7 
  179400        7 
  179500        7 
  179600        7 
  179700        7 
  179800        7 
  179900        7 
  180000        7 
  180100        7 
  180200        7 
  180300        7 
  180400        7 
  180500        7 
  180600        7 
  180700        7 
  180800        7 
  180900        7 
  181000        7 
  181100        7 
  181200        7 
  181300        7 
  181400        7 
  181500        7 
  181600        7 
  181700        7 
  181800        7 
  181900        7 
  182000        7 
  182100        7 
  182200        7 
  182300        7 
  182400        7 
  182500        7 
  182600        7 
  182700        7 
  182800        7 
  182900        7 
  183000        7 
  183100        7 
  183200        7 
  183300        7 
  183400        7 
  183500        7 
  183600        7 
  183700        7 
  183800        7 
  183900        7 
  184000        7 
  184100        7 
  184200        7 
  184300        7 
  184400        7 
  184500        7 
  184600        7 
  184700        7 
  184800        7 
  184900        7 
  185000        7 
  185100        7 
  185200        7 
  185300        7 
  185400        7 
  185500        7 
  185600        7 
  185700        7 
  185800        7 
  185900        7 
  186000        7 
  186100        7 
  186200        7 
  186300        7 
  186400        7 
  186500        7 
  186600        7 
  186700        7 
  186800        7 
  186900        7 
  187000        7 
  187100        7 
  187200        7 
  187300        7 
  187400        7 
  187500        7 
  187600        7 
  187700        7 
  187800        7 
  187900        7 
  188000        7 
  188100        7 
  188200        7 
  188300        7 
  188400        7 
  188500        7 
  188600        7 
  188700        7 
  188800        7 
  188900        7 
  189000        7 
  189100        7 
  189200        7 
  189300        7 
  189400        7 
  189500        7 
  189600        7 
  189700        7 
  189800        7 
  189900        7 
  190000        7 
  190100        7 
  190200        7 
  190300        7 
  190400        7 
  190500        7 
  190600        7 
  190700        7 
  190800        7 
  190900        7 
  191000        7 
  191100        7 
  191200        7 
  191300        7 
  191400        7 
  191500        7 
  191600        7 
  191700        7 
  191800        7 
  191900        7 
  192000        7 
  192100        7 
  192200        7 
  192300        7 
  192400        7 
  192500        7 
  192600        7 
  192700        7 
  192800        7 
  192900        7 
  193000        7 
  193100        7 
  193200        7 
  193300        7 
  193400        7 
  193500        7 
  193600        7 
  193700        7 
  193800        7 
  193900        7 
  194000        7 
  194100        7 
  194200        7 
  194300        7 
  194400        7 
  194500        7 
  194600        7 
  194700        7 
  194800        7 
  194900        7 
  195000        7 
  195100        7 
  195200        7 
  195300        7 
  195400        7 
  195500        7 
  195600        7 
  195700        7 
  195800        7 
  195900        7 
  196000        7 
  196100        7 
  196200        7 
  196300        7 
  196400        7 
  196500        7 
  196600        7 
  196700        7 
  196800        7 
  196900        7 
  197000        7 
  197100        7 
  197200        7 
  197300        7 
  197400        7 
  197500        7 
  197600        7 
  197700        7 
  197800        7 
  197900        7 
  198000        7 
  198100        7 
  198200        7 
  198300        7 
  198400        7 
  198500        7 
  198600        7 
  198700        7 
  198800        7 
  198900        7 
  199000        7 
  199100        7 
  199200        7 
  199300        7 
  199400        7 
  199500        7 
  199600        7 
  199700        7 
  199800        7 
  199900        7 
  200000        7 
  200100        7 
  200200        7 
  200300        7 
  200400        7 
  200500        7 
  200600        7 
  200700        7 
  200800        7 
  200900        7 
  201000        7 
  201100        7 
  201200        7 
  201300        7 
  201400        7 
  201500        7 
  201600        7 
  201700        7 
  201800        7 
  201900        7 
  202000        7 
  202100        7 
  202200        7 
  202300        7 
  202400        7 
  202500        7 
  202600        7 
  202700        7 
  202800        7 
  202900        7 
  203000        7 
  203100        7 
  203200        7 
  203300        7 
  203400        7 
  203500        7 
  203600        7 
  203700        7 
  203800        7 
  203900        7 
  204000        7 
  204100        7 
  204200        7 
  204300        7 
  204400        7 
  204500        7 
  204600        7 
  204700        7 
  204800        7 
  204900        7 
  205000        7 
  205100        7 
  205200        7 
  205300        7 
  205400        7 
  205500        7 
  205600        7 
  205700        7 
  205800        7 
  205900        7 
  206000        7 
  206100        7 
  206200        7 
  206300        7 
  206400        7 
  206500        7 
  206600        7 
  206700        7 
  206800        7 
  206900        7 
  207000        7 
  207100        7 
  207200        7 
  207300        7 
  207400        7 
  207500        7 
  207600        7 
  207700        7 
  207800        7 
  207900        7 
  208000        7 
  208100        7 
  208200        7 
  208300        7 
  208400        7 
  208500        7 
  208600        7 
  208700        7 
  208800        7 
  208900        7 
  209000        7 
  209100        7 
  209200        7 
  209300        7 
  209400        7 
  209500        7 
  209600        7 
  209700        7 
  209800        7 
  209900        7 
  210000        7 
  210100        7 
  210200        7 
  210300        7 
  210400        7 
  210500        7 
  210600        7 
  210700        7 
  210800        7 
  210900        7 
  211000        7 
  211100        7 
  211200        7 
  211300        7 
  211400        7 
  211500        7 
  211600        7 
  211700        7 
  211800        7 
  211900        7 
  212000        7 
  212100        7 
  212200        7 
  212300        7 
  212400        7 
  212500        7 
  212600        7 
  212700        7 
  212800        7 
  212900        7 
  213000        7 
  213100        7 
  213200        7 
  213300        7 
  213400        7 
  213500        7 
  213600        7 
  213700        7 
  213800        7 
  213900        7 
  214000        7 
  214100        7 
  214200        7 
  214300        7 
  214400        7 
  214500        7 
  214600        7 
  214700        7 
  214800        7 
  214900        7 
  215000        7 
  215100        7 
  215200        7 
  215300        7 
  215400        7 
  215500        7 
  215600        7 
  215700        7 
  215800        7 
  215900        7 
  216000        7 
  216100        7 
  216200        7 
  216300        7 
  216400        7 
  216500        7 
  216600        7 
  216700        7 
  216800        7 
  216900        7 
  217000        7 
  217100        7 
  217200        7 
  217300        7 
  217400        7 
  217500        7 
  217600        7 
  217700        7 
  217800        7 
  217900        7 
  218000        7 
  218100        7 
  218200        7 
  218300        7 
  218400        7 
  218500        7 
  218600        7 
  218700        7 
  218800        7 
  218900        7 
  219000        7 
  219100        7 
  219200        7 
  219300        7 
  219400        7 
  219500        7 
  219600        7 
  219700        7 
  219800        7 
  219900        7 
  220000        7 
  220100        7 
  220200        7 
  220300        7 
  220400        7 
  220500        7 
  220600        7 
  220700        7 
  220800        7 
  220900        7 
  221000        7 
  221100        7 
  221200        7 
  221300        7 
  221400        7 
  221500        7 
  221600        7 
  221700        7 
  221800        7 
  221900        7 
  222000        7 
  222100        7 
  222200        7 
  222300        7 
  222400        7 
  222500        7 
  222600        7 
  222700        7 
  222800        7 
  222900        7 
  223000        7 
  223100        7 
  223200        7 
  223300        7 
  223400        7 
  223500        7 
  223600        7 
  223700        7 
  223800        7 
  223900        7 
  224000        7 
  224100        7 
  224200        7 
  224300        7 
  224400        7 
  224500        7 
  224600        7 
  224700        7 
  224800        7 
  224900        7 
  225000        7 
  225100        7 
  225200        7 
  225300        7 
  225400        7 
  225500        7 
  225600        7 
  225700        7 
  225800        7 
  225900        7 
  226000        7 
  226100        7 
  226200        7 
  226300        7 
  226400        7 
  226500        7 
  226600        7 
  226700        7 
  226800        7 
  226900        7 
  227000        7 
  227100        7 
  227200        7 
  227300        7 
  227400        7 
  227500        7 
  227600        7 
  227700        7 
  227800        7 
  227900        7 
  228000        7 
  228100        7 
  228200        7 
  228300        7 
  228400        7 
  228500        7 
  228600        7 
  228700        7 
  228800        7 
  228900        7 
  229000        7 
  229100        7 
  229200        7 
  229300        7 
  229400        7 
  229500        7 
  229600        7 
  229700        7 
  229800        7 
  229900        7 
  230000        7 
  230100        7 
  230200        7 
  230300        7 
  230400        7 
  230500        7 
  230600        7 
  230700        7 
  230800        7 
  230900        7 
  231000        7 
  231100        7 
  231200        7 
  231300        7 
  231400        7 
  231500        7 
  231600        7 
  231700        7 
  231800        7 
  231900        7 
  232000        7 
  232100        7 
  232200        7 
  232300        7 
  232400        7 
  232500        7 
  232600        7 
  232700        7 
  232800        7 
  232900        7 
  233000        7 
  233100        7 
  233200        7 
  233300        7 
  233400        7 
  233500        7 
  233600        7 
  233700        7 
  233800        7 
  233900        7 
  234000        7 
  234100        7 
  234200        7 
  234300        7 
  234400        7 
  234500        7 
  234600        7 
  234700        7 
  234800        7 
  234900        7 
  235000        7 
  235100        7 
  235200        7 
  235300        7 
  235400        7 
  235500        7 
  235600        7 
  235700        7 
  235800        7 
  235900        7 
  236000        7 
  236100        7 
  236200        7 
  236300        7 
  236400        7 
  236500        7 
  236600        7 
  236700        7 
  236800        7 
  236900        7 
  237000        7 
  237100        7 
  237200        7 
  237300        7 
  237400        7 
  237500        7 
  237600        7 
  237700        7 
  237800        7 
  237900        7 
  238000        7 
  238100        7 
  238200        7 
  238300        7 
  238400        7 
  238500        7 
  238600        7 
  238700        7 
  238800        7 
  238900        7 
  239000        7 
  239100        7 
  239200        7 
  239300        7 
  239400        7 
  239500        7 
  239600        7 
  239700        7 
  239800        7 
  239900        7 
  240000        7 
  240100        7 
  240200        7 
  240300        7 
  240400        7 
  240500        7 
  240600        7 
  240700        7 
  240800        7 
  240900        7 
  241000        7 
  241100        7 
  241200        7 
  241300        7 
  241400        7 
  241500        7 
  241600        7 
  241700        7 
  241800        7 
  241900        7 
  242000        7 
  242100        7 
  242200        7 
  242300        7 
  242400        7 
  242500        7 
  242600        7 
  242700        7 
  242800        7 
  242900        7 
  243000        7 
  243100        7 
  243200        7 
  243300        7 
  243400        7 
  243500        7 
  243600        7 
  243700        7 
  243800        7 
  243900        7 
  244000        7 
  244100        7 
  244200        7 
  244300        7 
  244400        7 
  244500        7 
  244600        7 
  244700        7 
  244800        7 
  244900        7 
  245000        7 
  245100        7 
  245200        7 
  245300        7 
  245400        7 
  245500        7 
  245600        7 
  245700        7 
  245800        7 
  245900        7 
  246000        7 
  246100        7 
  246200        7 
  246300        7 
  246400        7 
  246500        7 
  246600        7 
  246700        7 
  246800        7 
  246900        7 
  247000        7 
  247100        7 
  247200        7 
  247300        7 
  247400        7 
  247500        7 
  247600        7 
  247700        7 
  247800        7 
  247900        7 
  248000        7 
  248100        7 
  248200        7 
  248300        7 
  248400        7 
  248500        7 
  248600        7 
  248700        7 
  248800        7 
  248900        7 
  249000        7 
  249100        7 
  249200        7 
  249300        7 
  249400        7 
  249500        7 
  249600        7 
  249700        7 
  249800        7 
  249900        7 
  250000        7 
  250100        7 
  250200        7 
  250300        7 
  250400        7 
  250500        7 
  250600        7 
  250700        7 
  250800        7 
  250900        7 
  251000        7 
  251100        7 
  251200        7 
  251300        7 
  251400        7 
  251500        7 
  251600        7 
  251700        7 
  251800        7 
  251900        7 
  252000        7 
  252100        7 
  252200        7 
  252300        7 
  252400        7 
  252500        7 
  252600        7 
  252700        7 
  252800        7 
  252900        7 
  253000        7 
  253100        7 
  253200        7 
  253300        7 
  253400        7 
  253500        7 
  253600        7 
  253700        7 
  253800        7 
  253900        7 
  254000        7 
  254100        7 
  254200        7 
  254300        7 
  254400        7 
  254500        7 
  254600        7 
  254700        7 
  254800        7 
  254900        7 
  255000        7 
  255100        7 
  255200        7 
  255300        7 
  255400        7 
  255500        7 
  255600        7 
  255700        7 
  255800        7 
  255900        7 
  256000        7 
  256100        7 
  256200        7 
  256300        7 
  256400        7 
  256500        7 
  256600        7 
  256700        7 
  256800        7 
  256900        7 
  257000        7 
  257100        7 
  257200        7 
  257300        7 
  257400        7 
  257500        7 
  257600        7 
  257700        7 
  257800        7 
  257900        7 
  258000        7 
  258100        7 
  258200        7 
  258300        7 
  258400        7 
  258500        7 
  258600        7 
  258700        7 
  258800        7 
  258900        7 
  259000        7 
  259100        7 
  259200        7 
  259300        7 
  259400        7 
  259500        7 
  259600        7 
  259700        7 
  259800        7 
  259900        7 
  260000        7 
  260100        7 
  260200        7 
  260300        7 
  260400        7 
  260500        7 
  260600        7 
  260700        7 
  260800        7 
  260900        7 
  261000        7 
  261100        7 
  261200        7 
  261300        7 
  261400        7 
  261500        7 
  261600        7 
  261700        7 
  261800        7 
  261900        7 
  262000        7 
  262100        7 
  262200        7 
  262300        7 
  262400        7 
  262500        7 
  262600        7 
  262700        7 
  262800        7 
  262900        7 
  263000        7 
  263100        7 
  263200        7 
  263300        7 
  263400        7 
  263500        7 
  263600        7 
  263700        7 
  263800        7 
  263900        7 
  264000        7 
  264100        7 
  264200        7 
  264300        7 
  264400        7 
  264500        7 
  264600        7 
  264700        7 
  264800        7 
  264900        7 
  265000        7 
  265100        7 
  265200        7 
  265300        7 
  265400        7 
  265500        7 
  265600        7 
  265700        7 
  265800        7 
  265900        7 
  266000        7 
  266100        7 
  266200        7 
  266300        7 
  266400        7 
  266500        7 
  266600        7 
  266700        7 
  266800        7 
  266900        7 
  267000        7 
  267100        7 
  267200        7 
  267300        7 
  267400        7 
  267500        7 
  267600        7 
  267700        7 
  267800        7 
  267900        7 
  268000        7 
  268100        7 
  268200        7 
  268300        7 
  268400        7 
  268500        7 
  268600        7 
  268700        7 
  268800        7 
  268900        7 
  269000        7 
  269100        7 
  269200        7 
  269300        7 
  269400        7 
  269500        7 
  269600        7 
  269700        7 
  269800        7 
  269900        7 
  270000        7 
  270100        7 
  270200        7 
  270300        7 
  270400        7 
  270500        7 
  270600        7 
  270700        7 
  270800        7 
  270900        7 
  271000        7 
  271100        7 
  271200        7 
  271300        7 
  271400        7 
  271500        7 
  271600        7 
  271700        7 
  271800        7 
  271900        7 
  272000        7 
  272100        7 
  272200        7 
  272300        7 
  272400        7 
  272500        7 
  272600        7 
  272700        7 
  272800        7 
  272900        7 
  273000        7 
  273100        7 
  273200        7 
  273300        7 
  273400        7 
  273500        7 
  273600        7 
  273700        7 
  273800        7 
  273900        7 
  274000        7 
  274100        7 
  274200        7 
  274300        7 
  274400        7 
  274500        7 
  274600        7 
  274700        7 
  274800        7 
  274900        7 
  275000        7 
  275100        7 
  275200        7 
  275300        7 
  275400        7 
  275500        7 
  275600        7 
  275700        7 
  275800        7 
  275900        7 
  276000        7 
  276100        7 
  276200        7 
  276300        7 
  276400        7 
  276500        7 
  276600        7 
  276700        7 
  276800        7 
  276900        7 
  277000        7 
  277100        7 
  277200        7 
  277300        7 
  277400        7 
  277500        7 
  277600        7 
  277700        7 
  277800        7 
  277900        7 
  278000        7 
  278100        7 
  278200        7 
  278300        7 
  278400        7 
  278500        7 
  278600        7 
  278700        7 
  278800        7 
  278900        7 
  279000        7 
  279100        7 
  279200        7 
  279300        7 
  279400        7 
  279500        7 
  279600        7 
  279700        7 
  279800        7 
  279900        7 
  280000        7 
  280100        7 
  280200        7 
  280300        7 
  280400        7 
  280500        7 
  280600        7 
  280700        7 
  280800        7 
  280900        7 
  281000        7 
  281100        7 
  281200        7 
  281300        7 
  281400        7 
  281500        7 
  281600        7 
  281700        7 
  281800        7 
  281900        7 
  282000        7 
  282100        7 
  282200        7 
  282300        7 
  282400        7 
  282500        7 
  282600        7 
  282700        7 
  282800        7 
  282900        7 
  283000        7 
  283100        7 
  283200        7 
  283300        7 
  283400        7 
  283500        7 
  283600        7 
  283700        7 
  283800        7 
  283900        7 
  284000        7 
  284100        7 
  284200        7 
  284300        7 
  284400        7 
  284500        7 
  284600        7 
  284700        7 
  284800        7 
  284900        7 
  285000        7 
  285100        7 
  285200        7 
  285300        7 
  285400        7 
  285500        7 
  285600        7 
  285700        7 
  285800        7 
  285900        7 
  286000        7 
  286100        7 
  286200        7 
  286300        7 
  286400        7 
  286500        7 
  286600        7 
  286700        7 
  286800        7 
  286900        7 
  287000        7 
  287100        7 
  287200        7 
  287300        7 
  287400        7 
  287500        7 
  287600        7 
  287700        7 
  287800        7 
  287900        7 
  288000        7 
  288100        7 
  288200        7 
  288300        7 
  288400        7 
  288500        7 
  288600        7 
  288700        7 
  288800        7 
  288900        7 
  289000        7 
  289100        7 
  289200        7 
  289300        7 
  289400        7 
  289500        7 
  289600        7 
  289700        7 
  289800        7 
  289900        7 
  290000        7 
  290100        7 
  290200        7 
  290300        7 
  290400        7 
  290500        7 
  290600        7 
  290700        7 
  290800        7 
  290900        7 
  291000        7 
  291100        7 
  291200        7 
  291300        7 
  291400        7 
  291500        7 
  291600        7 
  291700        7 
  291800        7 
  291900        7 
  292000        7 
  292100        7 
  292200        7 
  292300        7 
  292400        7 
  292500        7 
  292600        7 
  292700        7 
  292800        7 
  292900        7 
  293000        7 
  293100        7 
  293200        7 
  293300        7 
  293400        7 
  293500        7 
  293600        7 
  293700        7 
  293800        7 
  293900        7 
  294000        7 
  294100        7 
  294200        7 
  294300        7 
  294400        7 
  294500        7 
  294600        7 
  294700        7 
  294800        7 
  294900        7 
  295000        7 
  295100        7 
  295200        7 
  295300        7 
  295400        7 
  295500        7 
  295600        7 
  295700        7 
  295800        7 
  295900        7 
  296000        7 
  296100        7 
  296200        7 
  296300        7 
  296400        7 
  296500        7 
  296600        7 
  296700        7 
  296800        7 
  296900        7 
  297000        7 
  297100        7 
  297200        7 
  297300        7 
  297400        7 
  297500        7 
  297600        7 
  297700        7 
  297800        7 
  297900        7 
  298000        7 
  298100        7 
  298200        7 
  298300        7 
  298400        7 
  298500        7 
  298600        7 
  298700        7 
  298800        7 
  298900        7 
  299000        7 
  299100        7 
  299200        7 
  299300        7 
  299400        7 
  299500        7 
  299600        7 
  299700        7 
  299800        7 
  299900        7 
  300000        7 
Loop time of 9.50115 on 1 procs for 300000 steps with 7 atoms

Performance: 272808967705684.062 ns/day, 0.000 hours/ns, 31575.112 timesteps/s
89.1% CPU use with 1 MPI tasks x no OpenMP threads

MPI task timing breakdown:
Section |  min time  |  avg time  |  max time  |%varavg| %total
---------------------------------------------------------------
Pair    | 1.3477     | 1.3477     | 1.3477     |   0.0 | 14.18
Bond    | 0.03596    | 0.03596    | 0.03596    |   0.0 |  0.38
Neigh   | 0.00016403 | 0.00016403 | 0.00016403 |   0.0 |  0.00
Comm    | 0.55808    | 0.55808    | 0.55808    |   0.0 |  5.87
Output  | 0.11156    | 0.11156    | 0.11156    |   0.0 |  1.17
Modify  | 7.3245     | 7.3245     | 7.3245     |   0.0 | 77.09
Other   |            | 0.1232     |            |       |  1.30

Nlocal:    7 ave 7 max 7 min
Histogram: 1 0 0 0 0 0 0 0 0 0
Nghost:    56 ave 56 max 56 min
Histogram: 1 0 0 0 0 0 0 0 0 0
Neighs:    115 ave 115 max 115 min
Histogram: 1 0 0 0 0 0 0 0 0 0
FullNghs:  230 ave 230 max 230 min
Histogram: 1 0 0 0 0 0 0 0 0 0

Total # of neighbors = 230
Ave neighs/atom = 32.8571
Ave special neighs/atom = 0
Neighbor list builds = 19
Dangerous builds = 0
Total wall time: 0:00:09
