ITEM: TIMESTEP
0
ITEM: NUMBER OF ATOMS
6
ITEM: BOX BOUNDS pp pp ff
-1.0000000000000000e+01 1.0000000000000000e+01
-1.0000000000000000e+01 1.0000000000000000e+01
-2.0499999999999998e+00 2.0499999999999998e+00
ITEM: ATOMS id type x y z mux muy muz 
1 1 -2.5 -5 0 0 0 0 
2 1 0 5 0 0 0 0 
3 1 2.5 -5 0 0 0 0 
4 2 -1 -5 0 2 0 0 
5 2 0 5 0 0 2 0 
6 3 1 -5 0 0 0 0 
ITEM: TIMESTEP
333
ITEM: NUMBER OF ATOMS
6
ITEM: BOX BOUNDS pp pp ff
-1.0000000000000000e+01 1.0000000000000000e+01
-1.0000000000000000e+01 1.0000000000000000e+01
-2.0499999999999998e+00 2.0499999999999998e+00
ITEM: ATOMS id type x y z mux muy muz 
1 1 -2.532 -4.98312 0.00150494 -0 0 0 
2 1 0.0523617 4.9759 0.00559214 -0 0 0 
3 1 2.49745 -4.79207 -0.038296 -0 0 0 
4 2 -1 -5 0 2 0 0 
5 2 0 5 0 0 2 0 
6 3 1 -5 0 0 0 0 
ITEM: TIMESTEP
666
ITEM: NUMBER OF ATOMS
6
ITEM: BOX BOUNDS pp pp ff
-1.0000000000000000e+01 1.0000000000000000e+01
-1.0000000000000000e+01 1.0000000000000000e+01
-2.0499999999999998e+00 2.0499999999999998e+00
ITEM: ATOMS id type x y z mux muy muz 
1 1 -2.30391 -4.96901 0.0448418 -0 -0 0 
2 1 -0.0473761 4.89169 0.0214545 -0 -0 0 
3 1 2.54331 -4.78077 0.0529773 -0 -0 0 
4 2 -1 -5 0 2 0 0 
5 2 0 5 0 0 2 0 
6 3 1 -5 0 0 0 0 
ITEM: TIMESTEP
999
ITEM: NUMBER OF ATOMS
6
ITEM: BOX BOUNDS pp pp ff
-1.0000000000000000e+01 1.0000000000000000e+01
-1.0000000000000000e+01 1.0000000000000000e+01
-2.0499999999999998e+00 2.0499999999999998e+00
ITEM: ATOMS id type x y z mux muy muz 
1 1 -2.15529 -5.03144 0.0170026 0 -0 0 
2 1 -0.0648547 4.83106 -0.0324279 0 -0 0 
3 1 2.61549 -4.75286 -0.0292329 0 -0 0 
4 2 -1 -5 0 2 0 0 
5 2 0 5 0 0 2 0 
6 3 1 -5 0 0 0 0 
ITEM: TIMESTEP
1332
ITEM: NUMBER OF ATOMS
6
ITEM: BOX BOUNDS pp pp ff
-1.0000000000000000e+01 1.0000000000000000e+01
-1.0000000000000000e+01 1.0000000000000000e+01
-2.0499999999999998e+00 2.0499999999999998e+00
ITEM: ATOMS id type x y z mux muy muz 
1 1 -2.13278 -5.08446 0.00659692 -0 0 0 
2 1 -0.0749482 4.80168 -0.00066108 -0 0 0 
3 1 2.56482 -4.67581 -0.0337687 -0 0 0 
4 2 -1 -5 0 2 0 0 
5 2 0 5 0 0 2 0 
6 3 1 -5 0 0 0 0 
ITEM: TIMESTEP
1665
ITEM: NUMBER OF ATOMS
6
ITEM: BOX BOUNDS pp pp ff
-1.0000000000000000e+01 1.0000000000000000e+01
-1.0000000000000000e+01 1.0000000000000000e+01
-2.0499999999999998e+00 2.0499999999999998e+00
ITEM: ATOMS id type x y z mux muy muz 
1 1 -2.11873 -5.11715 0.0387561 -0 -0 0 
2 1 -0.0793378 4.85365 -0.0283928 -0 -0 0 
3 1 2.51659 -4.72662 0.0496963 -0 -0 0 
4 2 -1 -5 0 2 0 0 
5 2 0 5 0 0 2 0 
6 3 1 -5 0 0 0 0 
ITEM: TIMESTEP
1998
ITEM: NUMBER OF ATOMS
6
ITEM: BOX BOUNDS pp pp ff
-1.0000000000000000e+01 1.0000000000000000e+01
-1.0000000000000000e+01 1.0000000000000000e+01
-2.0499999999999998e+00 2.0499999999999998e+00
ITEM: ATOMS id type x y z mux muy muz 
1 1 -2.02343 -5.204 0.0558603 0 -0 0 
2 1 -0.0722347 4.89206 -0.0118815 0 -0 0 
3 1 2.47213 -4.75042 0.00419655 0 -0 0 
4 2 -1 -5 0 2 0 0 
5 2 0 5 0 0 2 0 
6 3 1 -5 0 0 0 0 
ITEM: TIMESTEP
2331
ITEM: NUMBER OF ATOMS
6
ITEM: BOX BOUNDS pp pp ff
-1.0000000000000000e+01 1.0000000000000000e+01
-1.0000000000000000e+01 1.0000000000000000e+01
-2.0499999999999998e+00 2.0499999999999998e+00
ITEM: ATOMS id type x y z mux muy muz 
1 1 -1.91564 -5.22181 0.0437086 -0 0 0 
2 1 0.0115069 4.89144 0.0276245 -0 0 0 
3 1 2.50037 -4.84048 -0.0133809 -0 0 0 
4 2 -1 -5 0 2 0 0 
5 2 0 5 0 0 2 0 
6 3 1 -5 0 0 0 0 
ITEM: TIMESTEP
2664
ITEM: NUMBER OF ATOMS
6
ITEM: BOX BOUNDS pp pp ff
-1.0000000000000000e+01 1.0000000000000000e+01
-1.0000000000000000e+01 1.0000000000000000e+01
-2.0499999999999998e+00 2.0499999999999998e+00
ITEM: ATOMS id type x y z mux muy muz 
1 1 -1.88469 -5.25844 -0.0247655 -0 -0 0 
2 1 0.0103186 4.86785 -0.0191837 -0 -0 0 
3 1 2.39685 -4.9172 0.0257265 -0 -0 0 
4 2 -1 -5 0 2 0 0 
5 2 0 5 0 0 2 0 
6 3 1 -5 0 0 0 0 
ITEM: TIMESTEP
2997
ITEM: NUMBER OF ATOMS
6
ITEM: BOX BOUNDS pp pp ff
-1.0000000000000000e+01 1.0000000000000000e+01
-1.0000000000000000e+01 1.0000000000000000e+01
-2.0499999999999998e+00 2.0499999999999998e+00
ITEM: ATOMS id type x y z mux muy muz 
1 1 -1.79241 -5.20822 -0.0273601 0 -0 0 
2 1 0.123643 4.96037 0.0450319 0 -0 0 
3 1 2.21091 -4.98629 0.0406002 0 -0 0 
4 2 -1 -5 0 2 0 0 
5 2 0 5 0 0 2 0 
6 3 1 -5 0 0 0 0 
ITEM: TIMESTEP
3330
ITEM: NUMBER OF ATOMS
6
ITEM: BOX BOUNDS pp pp ff
-1.0000000000000000e+01 1.0000000000000000e+01
-1.0000000000000000e+01 1.0000000000000000e+01
-2.0499999999999998e+00 2.0499999999999998e+00
ITEM: ATOMS id type x y z mux muy muz 
1 1 -1.80602 -5.16354 -0.0434226 -0 0 0 
2 1 0.209053 4.97367 0.0533107 -0 0 0 
3 1 2.21158 -4.92778 -0.0464272 -0 0 0 
4 2 -1 -5 0 2 0 0 
5 2 0 5 0 0 2 0 
6 3 1 -5 0 0 0 0 
ITEM: TIMESTEP
3663
ITEM: NUMBER OF ATOMS
6
ITEM: BOX BOUNDS pp pp ff
-1.0000000000000000e+01 1.0000000000000000e+01
-1.0000000000000000e+01 1.0000000000000000e+01
-2.0499999999999998e+00 2.0499999999999998e+00
ITEM: ATOMS id type x y z mux muy muz 
1 1 -1.80242 -5.12701 -0.0362026 -0 -0 0 
2 1 0.120689 4.97899 -0.00215279 -0 -0 0 
3 1 2.25215 -4.92575 -0.000948535 -0 -0 0 
4 2 -1 -5 0 2 0 0 
5 2 0 5 0 0 2 0 
6 3 1 -5 0 0 0 0 
ITEM: TIMESTEP
3996
ITEM: NUMBER OF ATOMS
6
ITEM: BOX BOUNDS pp pp ff
-1.0000000000000000e+01 1.0000000000000000e+01
-1.0000000000000000e+01 1.0000000000000000e+01
-2.0499999999999998e+00 2.0499999999999998e+00
ITEM: ATOMS id type x y z mux muy muz 
1 1 -1.82499 -5.12173 -0.0466387 0 -0 0 
2 1 0.244212 5.04929 0.0132703 0 -0 0 
3 1 2.32134 -5.05319 0.0307674 0 -0 0 
4 2 -1 -5 0 2 0 0 
5 2 0 5 0 0 2 0 
6 3 1 -5 0 0 0 0 
ITEM: TIMESTEP
4329
ITEM: NUMBER OF ATOMS
6
ITEM: BOX BOUNDS pp pp ff
-1.0000000000000000e+01 1.0000000000000000e+01
-1.0000000000000000e+01 1.0000000000000000e+01
-2.0499999999999998e+00 2.0499999999999998e+00
ITEM: ATOMS id type x y z mux muy muz 
1 1 -1.74961 -5.20806 -0.0311767 -0 0 0 
2 1 0.230682 5.01014 -0.023325 -0 0 0 
3 1 2.37135 -5.10128 0.0189687 -0 0 0 
4 2 -1 -5 0 2 0 0 
5 2 0 5 0 0 2 0 
6 3 1 -5 0 0 0 0 
ITEM: TIMESTEP
4662
ITEM: NUMBER OF ATOMS
6
ITEM: BOX BOUNDS pp pp ff
-1.0000000000000000e+01 1.0000000000000000e+01
-1.0000000000000000e+01 1.0000000000000000e+01
-2.0499999999999998e+00 2.0499999999999998e+00
ITEM: ATOMS id type x y z mux muy muz 
1 1 -1.80068 -5.20985 0.00583438 -0 -0 0 
2 1 0.244213 4.98307 -0.0122763 -0 -0 0 
3 1 2.28051 -5.11132 -0.000939927 -0 -0 0 
4 2 -1 -5 0 2 0 0 
5 2 0 5 0 0 2 0 
6 3 1 -5 0 0 0 0 
ITEM: TIMESTEP
4995
ITEM: NUMBER OF ATOMS
6
ITEM: BOX BOUNDS pp pp ff
-1.0000000000000000e+01 1.0000000000000000e+01
-1.0000000000000000e+01 1.0000000000000000e+01
-2.0499999999999998e+00 2.0499999999999998e+00
ITEM: ATOMS id type x y z mux muy muz 
1 1 -1.79631 -5.24417 0.0117858 0 -0 0 
2 1 0.194146 5.16344 -0.0264696 0 -0 0 
3 1 2.30856 -5.1478 0.0540866 0 -0 0 
4 2 -1 -5 0 2 0 0 
5 2 0 5 0 0 2 0 
6 3 1 -5 0 0 0 0 
ITEM: TIMESTEP
5328
ITEM: NUMBER OF ATOMS
6
ITEM: BOX BOUNDS pp pp ff
-1.0000000000000000e+01 1.0000000000000000e+01
-1.0000000000000000e+01 1.0000000000000000e+01
-2.0499999999999998e+00 2.0499999999999998e+00
ITEM: ATOMS id type x y z mux muy muz 
1 1 -1.70938 -5.3126 0.0440456 -0 0 0 
2 1 0.225848 5.21661 0.0519243 -0 0 0 
3 1 2.44252 -5.15129 -0.00856244 -0 0 0 
4 2 -1 -5 0 2 0 0 
5 2 0 5 0 0 2 0 
6 3 1 -5 0 0 0 0 
ITEM: TIMESTEP
5661
ITEM: NUMBER OF ATOMS
6
ITEM: BOX BOUNDS pp pp ff
-1.0000000000000000e+01 1.0000000000000000e+01
-1.0000000000000000e+01 1.0000000000000000e+01
-2.0499999999999998e+00 2.0499999999999998e+00
ITEM: ATOMS id type x y z mux muy muz 
1 1 -1.78409 -5.1873 0.0501167 -0 -0 0 
2 1 0.179937 5.18731 -0.0401846 -0 -0 0 
3 1 2.43159 -5.09075 0.0103841 -0 -0 0 
4 2 -1 -5 0 2 0 0 
5 2 0 5 0 0 2 0 
6 3 1 -5 0 0 0 0 
ITEM: TIMESTEP
5994
ITEM: NUMBER OF ATOMS
6
ITEM: BOX BOUNDS pp pp ff
-1.0000000000000000e+01 1.0000000000000000e+01
-1.0000000000000000e+01 1.0000000000000000e+01
-2.0499999999999998e+00 2.0499999999999998e+00
ITEM: ATOMS id type x y z mux muy muz 
1 1 -1.74969 -5.0959 0.010731 0 -0 0 
2 1 0.163423 5.20902 -0.0229534 0 -0 0 
3 1 2.55208 -5.03662 0.0471783 0 -0 0 
4 2 -1 -5 0 2 0 0 
5 2 0 5 0 0 2 0 
6 3 1 -5 0 0 0 0 
ITEM: TIMESTEP
6327
ITEM: NUMBER OF ATOMS
6
ITEM: BOX BOUNDS pp pp ff
-1.0000000000000000e+01 1.0000000000000000e+01
-1.0000000000000000e+01 1.0000000000000000e+01
-2.0499999999999998e+00 2.0499999999999998e+00
ITEM: ATOMS id type x y z mux muy muz 
1 1 -1.76448 -5.14058 -0.0242911 -0 0 0 
2 1 0.198073 5.17776 -0.049195 -0 0 0 
3 1 2.54785 -5.10473 0.0382621 -0 0 0 
4 2 -1 -5 0 2 0 0 
5 2 0 5 0 0 2 0 
6 3 1 -5 0 0 0 0 
ITEM: TIMESTEP
6660
ITEM: NUMBER OF ATOMS
6
ITEM: BOX BOUNDS pp pp ff
-1.0000000000000000e+01 1.0000000000000000e+01
-1.0000000000000000e+01 1.0000000000000000e+01
-2.0499999999999998e+00 2.0499999999999998e+00
ITEM: ATOMS id type x y z mux muy muz 
1 1 -1.85317 -5.09877 0.00626969 -0 -0 0 
2 1 0.150424 5.10975 0.044755 -0 -0 0 
3 1 2.54656 -5.10899 -0.021391 -0 -0 0 
4 2 -1 -5 0 2 0 0 
5 2 0 5 0 0 2 0 
6 3 1 -5 0 0 0 0 
ITEM: TIMESTEP
6993
ITEM: NUMBER OF ATOMS
6
ITEM: BOX BOUNDS pp pp ff
-1.0000000000000000e+01 1.0000000000000000e+01
-1.0000000000000000e+01 1.0000000000000000e+01
-2.0499999999999998e+00 2.0499999999999998e+00
ITEM: ATOMS id type x y z mux muy muz 
1 1 -2.00362 -5.05021 0.0205054 0 -0 0 
2 1 0.0976956 5.21167 0.0113957 0 -0 0 
3 1 2.49961 -5.12697 0.0338369 0 -0 0 
4 2 -1 -5 0 2 0 0 
5 2 0 5 0 0 2 0 
6 3 1 -5 0 0 0 0 
ITEM: TIMESTEP
7326
ITEM: NUMBER OF ATOMS
6
ITEM: BOX BOUNDS pp pp ff
-1.0000000000000000e+01 1.0000000000000000e+01
-1.0000000000000000e+01 1.0000000000000000e+01
-2.0499999999999998e+00 2.0499999999999998e+00
ITEM: ATOMS id type x y z mux muy muz 
1 1 -2.05807 -4.97122 0.0315619 -0 0 0 
2 1 0.0952427 5.18764 0.0277037 -0 0 0 
3 1 2.54761 -5.15136 0.022932 -0 0 0 
4 2 -1 -5 0 2 0 0 
5 2 0 5 0 0 2 0 
6 3 1 -5 0 0 0 0 
ITEM: TIMESTEP
7659
ITEM: NUMBER OF ATOMS
6
ITEM: BOX BOUNDS pp pp ff
-1.0000000000000000e+01 1.0000000000000000e+01
-1.0000000000000000e+01 1.0000000000000000e+01
-2.0499999999999998e+00 2.0499999999999998e+00
ITEM: ATOMS id type x y z mux muy muz 
1 1 -1.99461 -4.9693 0.0124094 -0 -0 0 
2 1 0.0511351 5.16857 -0.00916774 -0 -0 0 
3 1 2.52932 -5.19978 -0.0143931 -0 -0 0 
4 2 -1 -5 0 2 0 0 
5 2 0 5 0 0 2 0 
6 3 1 -5 0 0 0 0 
ITEM: TIMESTEP
7992
ITEM: NUMBER OF ATOMS
6
ITEM: BOX BOUNDS pp pp ff
-1.0000000000000000e+01 1.0000000000000000e+01
-1.0000000000000000e+01 1.0000000000000000e+01
-2.0499999999999998e+00 2.0499999999999998e+00
ITEM: ATOMS id type x y z mux muy muz 
1 1 -1.9747 -4.95339 0.0342853 0 -0 0 
2 1 -0.00478439 5.26354 -0.00477509 0 -0 0 
3 1 2.47705 -5.24175 -0.0493649 0 -0 0 
4 2 -1 -5 0 2 0 0 
5 2 0 5 0 0 2 0 
6 3 1 -5 0 0 0 0 
ITEM: TIMESTEP
8325
ITEM: NUMBER OF ATOMS
6
ITEM: BOX BOUNDS pp pp ff
-1.0000000000000000e+01 1.0000000000000000e+01
-1.0000000000000000e+01 1.0000000000000000e+01
-2.0499999999999998e+00 2.0499999999999998e+00
ITEM: ATOMS id type x y z mux muy muz 
1 1 -1.91438 -4.95953 0.0235366 0 0 0 
2 1 -0.0719259 5.28374 -0.00280007 0 0 0 
3 1 2.45928 -5.24971 0.0519806 0 0 0 
4 2 -1 -5 0 2 0 0 
5 2 0 5 0 0 2 0 
6 3 1 -5 0 0 0 0 
ITEM: TIMESTEP
8658
ITEM: NUMBER OF ATOMS
6
ITEM: BOX BOUNDS pp pp ff
-1.0000000000000000e+01 1.0000000000000000e+01
-1.0000000000000000e+01 1.0000000000000000e+01
-2.0499999999999998e+00 2.0499999999999998e+00
ITEM: ATOMS id type x y z mux muy muz 
1 1 -1.95154 -4.97147 0.0322693 -0 -0 0 
2 1 -0.0420285 5.28824 -0.0410233 -0 -0 0 
3 1 2.49574 -5.28628 -0.0456832 -0 -0 0 
4 2 -1 -5 0 2 0 0 
5 2 0 5 0 0 2 0 
6 3 1 -5 0 0 0 0 
ITEM: TIMESTEP
8991
ITEM: NUMBER OF ATOMS
6
ITEM: BOX BOUNDS pp pp ff
-1.0000000000000000e+01 1.0000000000000000e+01
-1.0000000000000000e+01 1.0000000000000000e+01
-2.0499999999999998e+00 2.0499999999999998e+00
ITEM: ATOMS id type x y z mux muy muz 
1 1 -1.86087 -5.00863 0.00478953 0 -0 0 
2 1 0.162594 5.26649 0.00270872 0 -0 0 
3 1 2.55216 -5.38529 0.0427357 0 -0 0 
4 2 -1 -5 0 2 0 0 
5 2 0 5 0 0 2 0 
6 3 1 -5 0 0 0 0 
ITEM: TIMESTEP
9324
ITEM: NUMBER OF ATOMS
6
ITEM: BOX BOUNDS pp pp ff
-1.0000000000000000e+01 1.0000000000000000e+01
-1.0000000000000000e+01 1.0000000000000000e+01
-2.0499999999999998e+00 2.0499999999999998e+00
ITEM: ATOMS id type x y z mux muy muz 
1 1 -1.91897 -5.01995 0.0190136 0 0 0 
2 1 0.0673046 5.30954 0.0335534 0 0 0 
3 1 2.48807 -5.39562 0.0172272 0 0 0 
4 2 -1 -5 0 2 0 0 
5 2 0 5 0 0 2 0 
6 3 1 -5 0 0 0 0 
ITEM: TIMESTEP
9657
ITEM: NUMBER OF ATOMS
6
ITEM: BOX BOUNDS pp pp ff
-1.0000000000000000e+01 1.0000000000000000e+01
-1.0000000000000000e+01 1.0000000000000000e+01
-2.0499999999999998e+00 2.0499999999999998e+00
ITEM: ATOMS id type x y z mux muy muz 
1 1 -1.87651 -4.94392 -0.0572642 -0 -0 0 
2 1 0.00223701 5.38747 -0.0447058 -0 -0 0 
3 1 2.65513 -5.42642 -0.0463698 -0 -0 0 
4 2 -1 -5 0 2 0 0 
5 2 0 5 0 0 2 0 
6 3 1 -5 0 0 0 0 
ITEM: TIMESTEP
9990
ITEM: NUMBER OF ATOMS
6
ITEM: BOX BOUNDS pp pp ff
-1.0000000000000000e+01 1.0000000000000000e+01
-1.0000000000000000e+01 1.0000000000000000e+01
-2.0499999999999998e+00 2.0499999999999998e+00
ITEM: ATOMS id type x y z mux muy muz 
1 1 -1.84412 -4.98109 0.0101618 0 -0 0 
2 1 0.0658106 5.47609 -0.0588488 0 -0 0 
3 1 2.60373 -5.31359 0.0168846 0 -0 0 
4 2 -1 -5 0 2 0 0 
5 2 0 5 0 0 2 0 
6 3 1 -5 0 0 0 0 
ITEM: TIMESTEP
10323
ITEM: NUMBER OF ATOMS
6
ITEM: BOX BOUNDS pp pp ff
-1.0000000000000000e+01 1.0000000000000000e+01
-1.0000000000000000e+01 1.0000000000000000e+01
-2.0499999999999998e+00 2.0499999999999998e+00
ITEM: ATOMS id type x y z mux muy muz 
1 1 -1.71174 -4.97788 0.00252453 0 0 0 
2 1 0.0583032 5.46455 0.0167474 0 0 0 
3 1 2.61219 -5.22783 -0.0501197 0 0 0 
4 2 -1 -5 0 2 0 0 
5 2 0 5 0 0 2 0 
6 3 1 -5 0 0 0 0 
ITEM: TIMESTEP
10656
ITEM: NUMBER OF ATOMS
6
ITEM: BOX BOUNDS pp pp ff
-1.0000000000000000e+01 1.0000000000000000e+01
-1.0000000000000000e+01 1.0000000000000000e+01
-2.0499999999999998e+00 2.0499999999999998e+00
ITEM: ATOMS id type x y z mux muy muz 
1 1 -1.64816 -5.05742 0.0536333 -0 -0 0 
2 1 0.0969061 5.49955 0.0304846 -0 -0 0 
3 1 2.5464 -5.27623 -0.0444287 -0 -0 0 
4 2 -1 -5 0 2 0 0 
5 2 0 5 0 0 2 0 
6 3 1 -5 0 0 0 0 
ITEM: TIMESTEP
10989
ITEM: NUMBER OF ATOMS
6
ITEM: BOX BOUNDS pp pp ff
-1.0000000000000000e+01 1.0000000000000000e+01
-1.0000000000000000e+01 1.0000000000000000e+01
-2.0499999999999998e+00 2.0499999999999998e+00
ITEM: ATOMS id type x y z mux muy muz 
1 1 -1.61258 -5.09818 -0.0466278 0 -0 0 
2 1 0.0822049 5.498 0.032677 0 -0 0 
3 1 2.52472 -5.35055 0.0288359 0 -0 0 
4 2 -1 -5 0 2 0 0 
5 2 0 5 0 0 2 0 
6 3 1 -5 0 0 0 0 
ITEM: TIMESTEP
11322
ITEM: NUMBER OF ATOMS
6
ITEM: BOX BOUNDS pp pp ff
-1.0000000000000000e+01 1.0000000000000000e+01
-1.0000000000000000e+01 1.0000000000000000e+01
-2.0499999999999998e+00 2.0499999999999998e+00
ITEM: ATOMS id type x y z mux muy muz 
1 1 -1.6058 -4.94102 -0.00164758 0 0 0 
2 1 -0.0126866 5.5318 0.0283847 0 0 0 
3 1 2.64408 -5.39905 -0.0450229 0 0 0 
4 2 -1 -5 0 2 0 0 
5 2 0 5 0 0 2 0 
6 3 1 -5 0 0 0 0 
ITEM: TIMESTEP
11655
ITEM: NUMBER OF ATOMS
6
ITEM: BOX BOUNDS pp pp ff
-1.0000000000000000e+01 1.0000000000000000e+01
-1.0000000000000000e+01 1.0000000000000000e+01
-2.0499999999999998e+00 2.0499999999999998e+00
ITEM: ATOMS id type x y z mux muy muz 
1 1 -1.54085 -4.9322 -0.0478695 -0 -0 0 
2 1 0.0292778 5.61231 -0.00775348 -0 -0 0 
3 1 2.69314 -5.41717 -0.0373834 -0 -0 0 
4 2 -1 -5 0 2 0 0 
5 2 0 5 0 0 2 0 
6 3 1 -5 0 0 0 0 
ITEM: TIMESTEP
11988
ITEM: NUMBER OF ATOMS
6
ITEM: BOX BOUNDS pp pp ff
-1.0000000000000000e+01 1.0000000000000000e+01
-1.0000000000000000e+01 1.0000000000000000e+01
-2.0499999999999998e+00 2.0499999999999998e+00
ITEM: ATOMS id type x y z mux muy muz 
1 1 -1.69327 -4.83643 -0.03804 0 -0 0 
2 1 0.0840097 5.57898 0.000529258 0 -0 0 
3 1 2.76961 -5.50843 -0.0411743 0 -0 0 
4 2 -1 -5 0 2 0 0 
5 2 0 5 0 0 2 0 
6 3 1 -5 0 0 0 0 
ITEM: TIMESTEP
12321
ITEM: NUMBER OF ATOMS
6
ITEM: BOX BOUNDS pp pp ff
-1.0000000000000000e+01 1.0000000000000000e+01
-1.0000000000000000e+01 1.0000000000000000e+01
-2.0499999999999998e+00 2.0499999999999998e+00
ITEM: ATOMS id type x y z mux muy muz 
1 1 -1.71444 -4.8952 -0.0454228 0 0 0 
2 1 0.0478068 5.65166 -0.00775599 0 0 0 
3 1 2.83728 -5.62855 -0.00697877 0 0 0 
4 2 -1 -5 0 2 0 0 
5 2 0 5 0 0 2 0 
6 3 1 -5 0 0 0 0 
ITEM: TIMESTEP
12654
ITEM: NUMBER OF ATOMS
6
ITEM: BOX BOUNDS pp pp ff
-1.0000000000000000e+01 1.0000000000000000e+01
-1.0000000000000000e+01 1.0000000000000000e+01
-2.0499999999999998e+00 2.0499999999999998e+00
ITEM: ATOMS id type x y z mux muy muz 
1 1 -1.72806 -4.91858 -0.024094 -0 -0 0 
2 1 0.0200983 5.54446 0.0192073 -0 -0 0 
3 1 2.86063 -5.64241 -0.0434363 -0 -0 0 
4 2 -1 -5 0 2 0 0 
5 2 0 5 0 0 2 0 
6 3 1 -5 0 0 0 0 
ITEM: TIMESTEP
12987
ITEM: NUMBER OF ATOMS
6
ITEM: BOX BOUNDS pp pp ff
-1.0000000000000000e+01 1.0000000000000000e+01
-1.0000000000000000e+01 1.0000000000000000e+01
-2.0499999999999998e+00 2.0499999999999998e+00
ITEM: ATOMS id type x y z mux muy muz 
1 1 -1.7826 -4.94931 0.00804053 0 -0 0 
2 1 0.0686874 5.44331 -0.0139114 0 -0 0 
3 1 2.87539 -5.66803 -0.0330087 0 -0 0 
4 2 -1 -5 0 2 0 0 
5 2 0 5 0 0 2 0 
6 3 1 -5 0 0 0 0 
ITEM: TIMESTEP
13320
ITEM: NUMBER OF ATOMS
6
ITEM: BOX BOUNDS pp pp ff
-1.0000000000000000e+01 1.0000000000000000e+01
-1.0000000000000000e+01 1.0000000000000000e+01
-2.0499999999999998e+00 2.0499999999999998e+00
ITEM: ATOMS id type x y z mux muy muz 
1 1 -1.84248 -4.98335 -0.0343935 0 0 0 
2 1 0.0947493 5.56052 -0.00876055 0 0 0 
3 1 2.93188 -5.82119 -0.00135885 0 0 0 
4 2 -1 -5 0 2 0 0 
5 2 0 5 0 0 2 0 
6 3 1 -5 0 0 0 0 
ITEM: TIMESTEP
13653
ITEM: NUMBER OF ATOMS
6
ITEM: BOX BOUNDS pp pp ff
-1.0000000000000000e+01 1.0000000000000000e+01
-1.0000000000000000e+01 1.0000000000000000e+01
-2.0499999999999998e+00 2.0499999999999998e+00
ITEM: ATOMS id type x y z mux muy muz 
1 1 -1.92829 -4.94753 0.0320315 -0 -0 0 
2 1 0.0554412 5.59614 -0.0141649 -0 -0 0 
3 1 2.9506 -5.93464 -0.0355676 -0 -0 0 
4 2 -1 -5 0 2 0 0 
5 2 0 5 0 0 2 0 
6 3 1 -5 0 0 0 0 
ITEM: TIMESTEP
13986
ITEM: NUMBER OF ATOMS
6
ITEM: BOX BOUNDS pp pp ff
-1.0000000000000000e+01 1.0000000000000000e+01
-1.0000000000000000e+01 1.0000000000000000e+01
-2.0499999999999998e+00 2.0499999999999998e+00
ITEM: ATOMS id type x y z mux muy muz 
1 1 -2.0065 -4.923 0.0408625 0 -0 0 
2 1 0.12645 5.64951 -0.0441152 0 -0 0 
3 1 2.98326 -5.97203 0.0437399 0 -0 0 
4 2 -1 -5 0 2 0 0 
5 2 0 5 0 0 2 0 
6 3 1 -5 0 0 0 0 
ITEM: TIMESTEP
14319
ITEM: NUMBER OF ATOMS
6
ITEM: BOX BOUNDS pp pp ff
-1.0000000000000000e+01 1.0000000000000000e+01
-1.0000000000000000e+01 1.0000000000000000e+01
-2.0499999999999998e+00 2.0499999999999998e+00
ITEM: ATOMS id type x y z mux muy muz 
1 1 -2.0261 -4.94306 0.031718 0 0 0 
2 1 0.0775903 5.66003 -0.0388124 0 0 0 
3 1 2.94722 -6.04047 0.0503071 0 0 0 
4 2 -1 -5 0 2 0 0 
5 2 0 5 0 0 2 0 
6 3 1 -5 0 0 0 0 
ITEM: TIMESTEP
14652
ITEM: NUMBER OF ATOMS
6
ITEM: BOX BOUNDS pp pp ff
-1.0000000000000000e+01 1.0000000000000000e+01
-1.0000000000000000e+01 1.0000000000000000e+01
-2.0499999999999998e+00 2.0499999999999998e+00
ITEM: ATOMS id type x y z mux muy muz 
1 1 -2.02425 -4.98651 -0.0554269 -0 -0 0 
2 1 0.0644007 5.64003 -0.0525659 -0 -0 0 
3 1 3.05167 -6.04864 0.0486317 -0 -0 0 
4 2 -1 -5 0 2 0 0 
5 2 0 5 0 0 2 0 
6 3 1 -5 0 0 0 0 
ITEM: TIMESTEP
14985
ITEM: NUMBER OF ATOMS
6
ITEM: BOX BOUNDS pp pp ff
-1.0000000000000000e+01 1.0000000000000000e+01
-1.0000000000000000e+01 1.0000000000000000e+01
-2.0499999999999998e+00 2.0499999999999998e+00
ITEM: ATOMS id type x y z mux muy muz 
1 1 -1.99001 -4.86044 0.0356928 0 -0 0 
2 1 -0.0911044 5.58393 -0.0160933 0 -0 0 
3 1 3.11173 -5.98401 -0.016478 0 -0 0 
4 2 -1 -5 0 2 0 0 
5 2 0 5 0 0 2 0 
6 3 1 -5 0 0 0 0 
ITEM: TIMESTEP
15318
ITEM: NUMBER OF ATOMS
6
ITEM: BOX BOUNDS pp pp ff
-1.0000000000000000e+01 1.0000000000000000e+01
-1.0000000000000000e+01 1.0000000000000000e+01
-2.0499999999999998e+00 2.0499999999999998e+00
ITEM: ATOMS id type x y z mux muy muz 
1 1 -1.98316 -4.9555 0.0221942 0 0 0 
2 1 0.00298179 5.65121 0.0177822 0 0 0 
3 1 3.05762 -5.89719 -0.0485959 0 0 0 
4 2 -1 -5 0 2 0 0 
5 2 0 5 0 0 2 0 
6 3 1 -5 0 0 0 0 
ITEM: TIMESTEP
15651
ITEM: NUMBER OF ATOMS
6
ITEM: BOX BOUNDS pp pp ff
-1.0000000000000000e+01 1.0000000000000000e+01
-1.0000000000000000e+01 1.0000000000000000e+01
-2.0499999999999998e+00 2.0499999999999998e+00
ITEM: ATOMS id type x y z mux muy muz 
1 1 -1.94715 -4.93389 0.0226305 -0 -0 0 
2 1 0.0581773 5.66448 -0.0399778 -0 -0 0 
3 1 3.08863 -5.78076 -0.0560592 -0 -0 0 
4 2 -1 -5 0 2 0 0 
5 2 0 5 0 0 2 0 
6 3 1 -5 0 0 0 0 
ITEM: TIMESTEP
15984
ITEM: NUMBER OF ATOMS
6
ITEM: BOX BOUNDS pp pp ff
-1.0000000000000000e+01 1.0000000000000000e+01
-1.0000000000000000e+01 1.0000000000000000e+01
-2.0499999999999998e+00 2.0499999999999998e+00
ITEM: ATOMS id type x y z mux muy muz 
1 1 -1.98259 -4.98981 0.0365961 0 -0 0 
2 1 0.102106 5.73936 -0.0145029 0 -0 0 
3 1 3.17872 -5.69164 0.0122351 0 -0 0 
4 2 -1 -5 0 2 0 0 
5 2 0 5 0 0 2 0 
6 3 1 -5 0 0 0 0 
ITEM: TIMESTEP
16317
ITEM: NUMBER OF ATOMS
6
ITEM: BOX BOUNDS pp pp ff
-1.0000000000000000e+01 1.0000000000000000e+01
-1.0000000000000000e+01 1.0000000000000000e+01
-2.0499999999999998e+00 2.0499999999999998e+00
ITEM: ATOMS id type x y z mux muy muz 
1 1 -2.04003 -5.0553 0.0297429 0 0 0 
2 1 0.0877106 5.84111 -0.010524 0 0 0 
3 1 3.096 -5.64432 -0.00570519 0 0 0 
4 2 -1 -5 0 2 0 0 
5 2 0 5 0 0 2 0 
6 3 1 -5 0 0 0 0 
ITEM: TIMESTEP
16650
ITEM: NUMBER OF ATOMS
6
ITEM: BOX BOUNDS pp pp ff
-1.0000000000000000e+01 1.0000000000000000e+01
-1.0000000000000000e+01 1.0000000000000000e+01
-2.0499999999999998e+00 2.0499999999999998e+00
ITEM: ATOMS id type x y z mux muy muz 
1 1 -2.08842 -4.97129 -0.0019105 -0 0 0 
2 1 0.0637308 5.88518 -0.00633467 -0 0 0 
3 1 3.10443 -5.54944 -0.021697 -0 0 0 
4 2 -1 -5 0 2 0 0 
5 2 0 5 0 0 2 0 
6 3 1 -5 0 0 0 0 
ITEM: TIMESTEP
16983
ITEM: NUMBER OF ATOMS
6
ITEM: BOX BOUNDS pp pp ff
-1.0000000000000000e+01 1.0000000000000000e+01
-1.0000000000000000e+01 1.0000000000000000e+01
-2.0499999999999998e+00 2.0499999999999998e+00
ITEM: ATOMS id type x y z mux muy muz 
1 1 -1.97916 -4.97396 0.0479021 0 -0 0 
2 1 0.0969446 5.90631 -0.005526 0 -0 0 
3 1 3.02618 -5.46625 -0.0114181 0 -0 0 
4 2 -1 -5 0 2 0 0 
5 2 0 5 0 0 2 0 
6 3 1 -5 0 0 0 0 
ITEM: TIMESTEP
17316
ITEM: NUMBER OF ATOMS
6
ITEM: BOX BOUNDS pp pp ff
-1.0000000000000000e+01 1.0000000000000000e+01
-1.0000000000000000e+01 1.0000000000000000e+01
-2.0499999999999998e+00 2.0499999999999998e+00
ITEM: ATOMS id type x y z mux muy muz 
1 1 -2.02494 -4.95375 0.0368223 0 0 0 
2 1 0.0947376 5.90871 -0.0525813 0 0 0 
3 1 2.98159 -5.50565 0.0160826 0 0 0 
4 2 -1 -5 0 2 0 0 
5 2 0 5 0 0 2 0 
6 3 1 -5 0 0 0 0 
ITEM: TIMESTEP
17649
ITEM: NUMBER OF ATOMS
6
ITEM: BOX BOUNDS pp pp ff
-1.0000000000000000e+01 1.0000000000000000e+01
-1.0000000000000000e+01 1.0000000000000000e+01
-2.0499999999999998e+00 2.0499999999999998e+00
ITEM: ATOMS id type x y z mux muy muz 
1 1 -1.98619 -4.95272 -0.0232779 -0 0 0 
2 1 0.0367038 5.87481 -0.0278285 -0 0 0 
3 1 3.05941 -5.44388 -0.00778528 -0 0 0 
4 2 -1 -5 0 2 0 0 
5 2 0 5 0 0 2 0 
6 3 1 -5 0 0 0 0 
ITEM: TIMESTEP
17982
ITEM: NUMBER OF ATOMS
6
ITEM: BOX BOUNDS pp pp ff
-1.0000000000000000e+01 1.0000000000000000e+01
-1.0000000000000000e+01 1.0000000000000000e+01
-2.0499999999999998e+00 2.0499999999999998e+00
ITEM: ATOMS id type x y z mux muy muz 
1 1 -1.92194 -4.99225 -0.0501771 0 -0 0 
2 1 0.116181 5.94805 0.00609579 0 -0 0 
3 1 2.95717 -5.46925 -0.0439836 0 -0 0 
4 2 -1 -5 0 2 0 0 
5 2 0 5 0 0 2 0 
6 3 1 -5 0 0 0 0 
ITEM: TIMESTEP
18315
ITEM: NUMBER OF ATOMS
6
ITEM: BOX BOUNDS pp pp ff
-1.0000000000000000e+01 1.0000000000000000e+01
-1.0000000000000000e+01 1.0000000000000000e+01
-2.0499999999999998e+00 2.0499999999999998e+00
ITEM: ATOMS id type x y z mux muy muz 
1 1 -1.98059 -5.00731 0.00815584 0 0 0 
2 1 0.00427199 5.87904 -0.0221355 0 0 0 
3 1 2.94733 -5.48362 -0.0261238 0 0 0 
4 2 -1 -5 0 2 0 0 
5 2 0 5 0 0 2 0 
6 3 1 -5 0 0 0 0 
ITEM: TIMESTEP
18648
ITEM: NUMBER OF ATOMS
6
ITEM: BOX BOUNDS pp pp ff
-1.0000000000000000e+01 1.0000000000000000e+01
-1.0000000000000000e+01 1.0000000000000000e+01
-2.0499999999999998e+00 2.0499999999999998e+00
ITEM: ATOMS id type x y z mux muy muz 
1 1 -1.96045 -5.06729 0.0118891 -0 0 0 
2 1 0.0127835 5.89102 -0.0400524 -0 0 0 
3 1 2.98955 -5.47739 0.0370199 -0 0 0 
4 2 -1 -5 0 2 0 0 
5 2 0 5 0 0 2 0 
6 3 1 -5 0 0 0 0 
ITEM: TIMESTEP
18981
ITEM: NUMBER OF ATOMS
6
ITEM: BOX BOUNDS pp pp ff
-1.0000000000000000e+01 1.0000000000000000e+01
-1.0000000000000000e+01 1.0000000000000000e+01
-2.0499999999999998e+00 2.0499999999999998e+00
ITEM: ATOMS id type x y z mux muy muz 
1 1 -1.96054 -5.09011 0.0278206 0 -0 0 
2 1 0.0233494 5.81877 0.0283128 0 -0 0 
3 1 2.97902 -5.46628 -0.022308 0 -0 0 
4 2 -1 -5 0 2 0 0 
5 2 0 5 0 0 2 0 
6 3 1 -5 0 0 0 0 
ITEM: TIMESTEP
19314
ITEM: NUMBER OF ATOMS
6
ITEM: BOX BOUNDS pp pp ff
-1.0000000000000000e+01 1.0000000000000000e+01
-1.0000000000000000e+01 1.0000000000000000e+01
-2.0499999999999998e+00 2.0499999999999998e+00
ITEM: ATOMS id type x y z mux muy muz 
1 1 -1.91459 -5.0448 0.0128947 0 0 0 
2 1 0.0426734 5.86679 0.017791 0 0 0 
3 1 3.04351 -5.54168 -0.0382194 0 0 0 
4 2 -1 -5 0 2 0 0 
5 2 0 5 0 0 2 0 
6 3 1 -5 0 0 0 0 
ITEM: TIMESTEP
19647
ITEM: NUMBER OF ATOMS
6
ITEM: BOX BOUNDS pp pp ff
-1.0000000000000000e+01 1.0000000000000000e+01
-1.0000000000000000e+01 1.0000000000000000e+01
-2.0499999999999998e+00 2.0499999999999998e+00
ITEM: ATOMS id type x y z mux muy muz 
1 1 -1.79333 -5.02943 -0.00421442 -0 0 0 
2 1 0.0343243 5.90123 -0.020089 -0 0 0 
3 1 3.0198 -5.53894 0.0465725 -0 0 0 
4 2 -1 -5 0 2 0 0 
5 2 0 5 0 0 2 0 
6 3 1 -5 0 0 0 0 
ITEM: TIMESTEP
19980
ITEM: NUMBER OF ATOMS
6
ITEM: BOX BOUNDS pp pp ff
-1.0000000000000000e+01 1.0000000000000000e+01
-1.0000000000000000e+01 1.0000000000000000e+01
-2.0499999999999998e+00 2.0499999999999998e+00
ITEM: ATOMS id type x y z mux muy muz 
1 1 -1.88288 -5.14958 -0.016268 0 -0 0 
2 1 -0.0336909 5.80962 -0.00391464 0 -0 0 
3 1 2.96227 -5.44474 0.0139426 0 -0 0 
4 2 -1 -5 0 2 0 0 
5 2 0 5 0 0 2 0 
6 3 1 -5 0 0 0 0 
ITEM: TIMESTEP
20313
ITEM: NUMBER OF ATOMS
6
ITEM: BOX BOUNDS pp pp ff
-1.0000000000000000e+01 1.0000000000000000e+01
-1.0000000000000000e+01 1.0000000000000000e+01
-2.0499999999999998e+00 2.0499999999999998e+00
ITEM: ATOMS id type x y z mux muy muz 
1 1 -1.90044 -5.20276 0.00281368 0 0 0 
2 1 -0.13935 5.71228 -0.0204984 0 0 0 
3 1 2.90989 -5.5151 0.0505524 0 0 0 
4 2 -1 -5 0 2 0 0 
5 2 0 5 0 0 2 0 
6 3 1 -5 0 0 0 0 
ITEM: TIMESTEP
20646
ITEM: NUMBER OF ATOMS
6
ITEM: BOX BOUNDS pp pp ff
-1.0000000000000000e+01 1.0000000000000000e+01
-1.0000000000000000e+01 1.0000000000000000e+01
-2.0499999999999998e+00 2.0499999999999998e+00
ITEM: ATOMS id type x y z mux muy muz 
1 1 -1.91767 -5.14469 -0.0504445 -0 0 0 
2 1 -0.109714 5.90905 0.0178548 -0 0 0 
3 1 2.84607 -5.57556 -0.0496978 -0 0 0 
4 2 -1 -5 0 2 0 0 
5 2 0 5 0 0 2 0 
6 3 1 -5 0 0 0 0 
ITEM: TIMESTEP
20979
ITEM: NUMBER OF ATOMS
6
ITEM: BOX BOUNDS pp pp ff
-1.0000000000000000e+01 1.0000000000000000e+01
-1.0000000000000000e+01 1.0000000000000000e+01
-2.0499999999999998e+00 2.0499999999999998e+00
ITEM: ATOMS id type x y z mux muy muz 
1 1 -1.78229 -5.2631 0.0440492 0 -0 0 
2 1 -0.100108 5.88383 -0.00296735 0 -0 0 
3 1 2.90395 -5.58772 0.00779863 0 -0 0 
4 2 -1 -5 0 2 0 0 
5 2 0 5 0 0 2 0 
6 3 1 -5 0 0 0 0 
ITEM: TIMESTEP
21312
ITEM: NUMBER OF ATOMS
6
ITEM: BOX BOUNDS pp pp ff
-1.0000000000000000e+01 1.0000000000000000e+01
-1.0000000000000000e+01 1.0000000000000000e+01
-2.0499999999999998e+00 2.0499999999999998e+00
ITEM: ATOMS id type x y z mux muy muz 
1 1 -1.81868 -5.22808 -0.00189009 0 0 0 
2 1 0.0275697 5.87515 -0.0283927 0 0 0 
3 1 2.99201 -5.56838 0.0213428 0 0 0 
4 2 -1 -5 0 2 0 0 
5 2 0 5 0 0 2 0 
6 3 1 -5 0 0 0 0 
ITEM: TIMESTEP
21645
ITEM: NUMBER OF ATOMS
6
ITEM: BOX BOUNDS pp pp ff
-1.0000000000000000e+01 1.0000000000000000e+01
-1.0000000000000000e+01 1.0000000000000000e+01
-2.0499999999999998e+00 2.0499999999999998e+00
ITEM: ATOMS id type x y z mux muy muz 
1 1 -1.83357 -5.15441 -0.017453 -0 0 0 
2 1 0.0574739 5.83759 0.0260435 -0 0 0 
3 1 3.04043 -5.51937 0.0392606 -0 0 0 
4 2 -1 -5 0 2 0 0 
5 2 0 5 0 0 2 0 
6 3 1 -5 0 0 0 0 
ITEM: TIMESTEP
21978
ITEM: NUMBER OF ATOMS
6
ITEM: BOX BOUNDS pp pp ff
-1.0000000000000000e+01 1.0000000000000000e+01
-1.0000000000000000e+01 1.0000000000000000e+01
-2.0499999999999998e+00 2.0499999999999998e+00
ITEM: ATOMS id type x y z mux muy muz 
1 1 -1.87265 -5.07142 0.0424598 0 -0 0 
2 1 0.0440767 5.78868 -0.00564016 0 -0 0 
3 1 2.9133 -5.53684 0.00705147 0 -0 0 
4 2 -1 -5 0 2 0 0 
5 2 0 5 0 0 2 0 
6 3 1 -5 0 0 0 0 
ITEM: TIMESTEP
22311
ITEM: NUMBER OF ATOMS
6
ITEM: BOX BOUNDS pp pp ff
-1.0000000000000000e+01 1.0000000000000000e+01
-1.0000000000000000e+01 1.0000000000000000e+01
-2.0499999999999998e+00 2.0499999999999998e+00
ITEM: ATOMS id type x y z mux muy muz 
1 1 -1.93167 -5.05251 0.00984589 0 0 0 
2 1 0.000491205 5.72754 0.0106235 0 0 0 
3 1 2.97238 -5.49781 -0.0538169 0 0 0 
4 2 -1 -5 0 2 0 0 
5 2 0 5 0 0 2 0 
6 3 1 -5 0 0 0 0 
ITEM: TIMESTEP
22644
ITEM: NUMBER OF ATOMS
6
ITEM: BOX BOUNDS pp pp ff
-1.0000000000000000e+01 1.0000000000000000e+01
-1.0000000000000000e+01 1.0000000000000000e+01
-2.0499999999999998e+00 2.0499999999999998e+00
ITEM: ATOMS id type x y z mux muy muz 
1 1 -1.82359 -5.00571 -0.0460688 -0 0 0 
2 1 0.123372 5.86124 -0.0456154 -0 0 0 
3 1 3.00138 -5.42531 -0.0431893 -0 0 0 
4 2 -1 -5 0 2 0 0 
5 2 0 5 0 0 2 0 
6 3 1 -5 0 0 0 0 
ITEM: TIMESTEP
22977
ITEM: NUMBER OF ATOMS
6
ITEM: BOX BOUNDS pp pp ff
-1.0000000000000000e+01 1.0000000000000000e+01
-1.0000000000000000e+01 1.0000000000000000e+01
-2.0499999999999998e+00 2.0499999999999998e+00
ITEM: ATOMS id type x y z mux muy muz 
1 1 -1.78275 -4.94969 -0.0350888 0 -0 0 
2 1 0.108628 5.82026 0.0119975 0 -0 0 
3 1 2.94345 -5.42074 -0.0037302 0 -0 0 
4 2 -1 -5 0 2 0 0 
5 2 0 5 0 0 2 0 
6 3 1 -5 0 0 0 0 
ITEM: TIMESTEP
23310
ITEM: NUMBER OF ATOMS
6
ITEM: BOX BOUNDS pp pp ff
-1.0000000000000000e+01 1.0000000000000000e+01
-1.0000000000000000e+01 1.0000000000000000e+01
-2.0499999999999998e+00 2.0499999999999998e+00
ITEM: ATOMS id type x y z mux muy muz 
1 1 -1.70805 -4.96154 -0.0309641 0 0 0 