ITEM: TIMESTEP
0
ITEM: NUMBER OF ATOMS
6
ITEM: BOX BOUNDS pp pp ff
-1.0000000000000000e+01 1.0000000000000000e+01
-1.0000000000000000e+01 1.0000000000000000e+01
-2.0499999999999998e+00 2.0499999999999998e+00
ITEM: ATOMS id type x y z mux muy muz 
1 1 -5 0 0 0 0 0 
2 1 0 5 0 0 0 0 
3 1 5 0 0 0 0 0 
4 2 -5 0 0 2 0 0 
5 2 0 5 0 0 2 0 
6 3 5 0 0 0 0 0 
ITEM: TIMESTEP
333
ITEM: NUMBER OF ATOMS
6
ITEM: BOX BOUNDS pp pp ff
-1.0000000000000000e+01 1.0000000000000000e+01
-1.0000000000000000e+01 1.0000000000000000e+01
-2.0499999999999998e+00 2.0499999999999998e+00
ITEM: ATOMS id type x y z mux muy muz 
1 1 -4.93069 0.041739 0.00322622 -0 0 0 
2 1 0.025985 5.05535 0.00995934 -0 0 0 
3 1 5.12224 -0.043839 0.0096175 -0 0 0 
4 2 -5 0 0 2 0 0 
5 2 0 5 0 0 2 0 
6 3 5 0 0 0 0 0 
ITEM: TIMESTEP
666
ITEM: NUMBER OF ATOMS
6
ITEM: BOX BOUNDS pp pp ff
-1.0000000000000000e+01 1.0000000000000000e+01
-1.0000000000000000e+01 1.0000000000000000e+01
-2.0499999999999998e+00 2.0499999999999998e+00
ITEM: ATOMS id type x y z mux muy muz 
1 1 -4.913 0.0407305 0.0257045 -0 -0 0 
2 1 -0.0257148 4.99073 0.000432411 -0 -0 0 
3 1 5.08581 0.0144367 0.050289 -0 -0 0 
4 2 -5 0 0 2 0 0 
5 2 0 5 0 0 2 0 
6 3 5 0 0 0 0 0 
ITEM: TIMESTEP
999
ITEM: NUMBER OF ATOMS
6
ITEM: BOX BOUNDS pp pp ff
-1.0000000000000000e+01 1.0000000000000000e+01
-1.0000000000000000e+01 1.0000000000000000e+01
-2.0499999999999998e+00 2.0499999999999998e+00
ITEM: ATOMS id type x y z mux muy muz 
1 1 -5.01226 0.0879689 -0.0419963 0 -0 0 
2 1 -0.0047614 5.0508 -0.0094126 0 -0 0 
3 1 5.03971 0.0967052 -0.0498877 0 -0 0 
4 2 -5 0 0 2 0 0 
5 2 0 5 0 0 2 0 
6 3 5 0 0 0 0 0 
ITEM: TIMESTEP
1332
ITEM: NUMBER OF ATOMS
6
ITEM: BOX BOUNDS pp pp ff
-1.0000000000000000e+01 1.0000000000000000e+01
-1.0000000000000000e+01 1.0000000000000000e+01
-2.0499999999999998e+00 2.0499999999999998e+00
ITEM: ATOMS id type x y z mux muy muz 
1 1 -5.00361 0.109251 -0.00668552 -0 0 0 
2 1 -0.0424028 5.01464 -0.0437336 -0 0 0 
3 1 5.13234 0.0373745 -0.0479542 -0 0 0 
4 2 -5 0 0 2 0 0 
5 2 0 5 0 0 2 0 
6 3 5 0 0 0 0 0 
ITEM: TIMESTEP
1665
ITEM: NUMBER OF ATOMS
6
ITEM: BOX BOUNDS pp pp ff
-1.0000000000000000e+01 1.0000000000000000e+01
-1.0000000000000000e+01 1.0000000000000000e+01
-2.0499999999999998e+00 2.0499999999999998e+00
ITEM: ATOMS id type x y z mux muy muz 
1 1 -4.88129 0.00535938 0.0221574 -0 -0 0 
2 1 -0.0871718 5.00957 -0.0316861 -0 -0 0 
3 1 5.19149 0.0722513 -0.0205578 -0 -0 0 
4 2 -5 0 0 2 0 0 
5 2 0 5 0 0 2 0 
6 3 5 0 0 0 0 0 
ITEM: TIMESTEP
1998
ITEM: NUMBER OF ATOMS
6
ITEM: BOX BOUNDS pp pp ff
-1.0000000000000000e+01 1.0000000000000000e+01
-1.0000000000000000e+01 1.0000000000000000e+01
-2.0499999999999998e+00 2.0499999999999998e+00
ITEM: ATOMS id type x y z mux muy muz 
1 1 -4.90973 0.00384958 0.0497935 0 -0 0 
2 1 -0.210197 5.06505 0.0213268 0 -0 0 
3 1 5.14027 -0.0449046 0.021767 0 -0 0 
4 2 -5 0 0 2 0 0 
5 2 0 5 0 0 2 0 
6 3 5 0 0 0 0 0 
ITEM: TIMESTEP
2331
ITEM: NUMBER OF ATOMS
6
ITEM: BOX BOUNDS pp pp ff
-1.0000000000000000e+01 1.0000000000000000e+01
-1.0000000000000000e+01 1.0000000000000000e+01
-2.0499999999999998e+00 2.0499999999999998e+00
ITEM: ATOMS id type x y z mux muy muz 
1 1 -4.93872 0.0683285 -0.0166062 -0 0 0 
2 1 -0.0763159 5.1457 0.0509314 -0 0 0 
3 1 5.03149 -0.102485 -0.0135844 -0 0 0 
4 2 -5 0 0 2 0 0 
5 2 0 5 0 0 2 0 
6 3 5 0 0 0 0 0 
ITEM: TIMESTEP
2664
ITEM: NUMBER OF ATOMS
6
ITEM: BOX BOUNDS pp pp ff
-1.0000000000000000e+01 1.0000000000000000e+01
-1.0000000000000000e+01 1.0000000000000000e+01
-2.0499999999999998e+00 2.0499999999999998e+00
ITEM: ATOMS id type x y z mux muy muz 
1 1 -4.86016 0.0758132 -0.0485087 -0 -0 0 
2 1 -0.0179993 5.1804 0.0422179 -0 -0 0 
3 1 4.95876 0.0293033 0.0086111 -0 -0 0 
4 2 -5 0 0 2 0 0 
5 2 0 5 0 0 2 0 
6 3 5 0 0 0 0 0 
ITEM: TIMESTEP
2997
ITEM: NUMBER OF ATOMS
6
ITEM: BOX BOUNDS pp pp ff
-1.0000000000000000e+01 1.0000000000000000e+01
-1.0000000000000000e+01 1.0000000000000000e+01
-2.0499999999999998e+00 2.0499999999999998e+00
ITEM: ATOMS id type x y z mux muy muz 
1 1 -4.99291 0.0134669 -0.049169 0 -0 0 
2 1 -0.0588131 5.19426 0.0206208 0 -0 0 
3 1 4.96515 0.0709287 -0.0287755 0 -0 0 
4 2 -5 0 0 2 0 0 
5 2 0 5 0 0 2 0 
6 3 5 0 0 0 0 0 
ITEM: TIMESTEP
3330
ITEM: NUMBER OF ATOMS
6
ITEM: BOX BOUNDS pp pp ff
-1.0000000000000000e+01 1.0000000000000000e+01
-1.0000000000000000e+01 1.0000000000000000e+01
-2.0499999999999998e+00 2.0499999999999998e+00
ITEM: ATOMS id type x y z mux muy muz 
1 1 -5.13955 0.0411753 -0.0270157 -0 0 0 
2 1 -0.0646839 5.1496 0.0236351 -0 0 0 
3 1 4.92466 -0.045384 0.0359183 -0 0 0 
4 2 -5 0 0 2 0 0 
5 2 0 5 0 0 2 0 
6 3 5 0 0 0 0 0 
ITEM: TIMESTEP
3663
ITEM: NUMBER OF ATOMS
6
ITEM: BOX BOUNDS pp pp ff
-1.0000000000000000e+01 1.0000000000000000e+01
-1.0000000000000000e+01 1.0000000000000000e+01
-2.0499999999999998e+00 2.0499999999999998e+00
ITEM: ATOMS id type x y z mux muy muz 
1 1 -5.02365 0.00907565 -0.0258706 -0 -0 0 
2 1 -0.170025 5.12536 -0.0212686 -0 -0 0 
3 1 4.97831 -0.0771541 0.0440096 -0 -0 0 
4 2 -5 0 0 2 0 0 
5 2 0 5 0 0 2 0 
6 3 5 0 0 0 0 0 
ITEM: TIMESTEP
3996
ITEM: NUMBER OF ATOMS
6
ITEM: BOX BOUNDS pp pp ff
-1.0000000000000000e+01 1.0000000000000000e+01
-1.0000000000000000e+01 1.0000000000000000e+01
-2.0499999999999998e+00 2.0499999999999998e+00
ITEM: ATOMS id type x y z mux muy muz 
1 1 -5.04353 -0.0333199 0.0288653 0 -0 0 
2 1 -0.108668 5.17428 0.000809147 0 -0 0 
3 1 4.96826 -0.131721 -0.0138688 0 -0 0 
4 2 -5 0 0 2 0 0 
5 2 0 5 0 0 2 0 
6 3 5 0 0 0 0 0 
ITEM: TIMESTEP
4329
ITEM: NUMBER OF ATOMS
6
ITEM: BOX BOUNDS pp pp ff
-1.0000000000000000e+01 1.0000000000000000e+01
-1.0000000000000000e+01 1.0000000000000000e+01
-2.0499999999999998e+00 2.0499999999999998e+00
ITEM: ATOMS id type x y z mux muy muz 
1 1 -4.99401 -0.0259659 0.032201 -0 0 0 
2 1 -0.185053 5.14719 -0.0246066 -0 0 0 
3 1 4.98026 -0.170694 0.0193005 -0 0 0 
4 2 -5 0 0 2 0 0 
5 2 0 5 0 0 2 0 
6 3 5 0 0 0 0 0 
ITEM: TIMESTEP
4662
ITEM: NUMBER OF ATOMS
6
ITEM: BOX BOUNDS pp pp ff
-1.0000000000000000e+01 1.0000000000000000e+01
-1.0000000000000000e+01 1.0000000000000000e+01
-2.0499999999999998e+00 2.0499999999999998e+00
ITEM: ATOMS id type x y z mux muy muz 
1 1 -5.04973 -0.0180832 0.0272023 -0 -0 0 
2 1 -0.226349 5.17305 0.0223185 -0 -0 0 
3 1 5.01459 -0.201618 0.0300994 -0 -0 0 
4 2 -5 0 0 2 0 0 
5 2 0 5 0 0 2 0 
6 3 5 0 0 0 0 0 
ITEM: TIMESTEP
4995
ITEM: NUMBER OF ATOMS
6
ITEM: BOX BOUNDS pp pp ff
-1.0000000000000000e+01 1.0000000000000000e+01
-1.0000000000000000e+01 1.0000000000000000e+01
-2.0499999999999998e+00 2.0499999999999998e+00
ITEM: ATOMS id type x y z mux muy muz 
1 1 -5.06952 0.025524 0.00564684 0 -0 0 
2 1 -0.130494 5.21982 0.028037 0 -0 0 
3 1 4.9609 -0.249459 0.0331987 0 -0 0 
4 2 -5 0 0 2 0 0 
5 2 0 5 0 0 2 0 
6 3 5 0 0 0 0 0 
ITEM: TIMESTEP
5328
ITEM: NUMBER OF ATOMS
6
ITEM: BOX BOUNDS pp pp ff
-1.0000000000000000e+01 1.0000000000000000e+01
-1.0000000000000000e+01 1.0000000000000000e+01
-2.0499999999999998e+00 2.0499999999999998e+00
ITEM: ATOMS id type x y z mux muy muz 
1 1 -5.16199 0.0845202 -0.00149255 -0 0 0 
2 1 -0.184085 5.10759 0.018111 -0 0 0 
3 1 5.03377 -0.246467 -0.0418603 -0 0 0 
4 2 -5 0 0 2 0 0 
5 2 0 5 0 0 2 0 
6 3 5 0 0 0 0 0 
ITEM: TIMESTEP
5661
ITEM: NUMBER OF ATOMS
6
ITEM: BOX BOUNDS pp pp ff
-1.0000000000000000e+01 1.0000000000000000e+01
-1.0000000000000000e+01 1.0000000000000000e+01
-2.0499999999999998e+00 2.0499999999999998e+00
ITEM: ATOMS id type x y z mux muy muz 
1 1 -5.09585 0.0502494 -0.024113 -0 -0 0 
2 1 -0.177706 5.09409 0.0113199 -0 -0 0 
3 1 5.04068 -0.197001 0.015917 -0 -0 0 
4 2 -5 0 0 2 0 0 
5 2 0 5 0 0 2 0 
6 3 5 0 0 0 0 0 
ITEM: TIMESTEP
5994
ITEM: NUMBER OF ATOMS
6
ITEM: BOX BOUNDS pp pp ff
-1.0000000000000000e+01 1.0000000000000000e+01
-1.0000000000000000e+01 1.0000000000000000e+01
-2.0499999999999998e+00 2.0499999999999998e+00
ITEM: ATOMS id type x y z mux muy muz 
1 1 -5.10037 -0.0492692 -0.0426049 0 -0 0 
2 1 -0.118478 5.09939 -0.0209311 0 -0 0 
3 1 5.01186 -0.147391 -0.0240034 0 -0 0 
4 2 -5 0 0 2 0 0 
5 2 0 5 0 0 2 0 
6 3 5 0 0 0 0 0 
ITEM: TIMESTEP
6327
ITEM: NUMBER OF ATOMS
6
ITEM: BOX BOUNDS pp pp ff
-1.0000000000000000e+01 1.0000000000000000e+01
-1.0000000000000000e+01 1.0000000000000000e+01
-2.0499999999999998e+00 2.0499999999999998e+00
ITEM: ATOMS id type x y z mux muy muz 
1 1 -5.21177 0.00257126 -0.015759 -0 0 0 
2 1 -0.0203191 5.11619 0.0146268 -0 0 0 
3 1 4.97096 -0.0277516 0.0336077 -0 0 0 
4 2 -5 0 0 2 0 0 
5 2 0 5 0 0 2 0 
6 3 5 0 0 0 0 0 
ITEM: TIMESTEP
6660
ITEM: NUMBER OF ATOMS
6
ITEM: BOX BOUNDS pp pp ff
-1.0000000000000000e+01 1.0000000000000000e+01
-1.0000000000000000e+01 1.0000000000000000e+01
-2.0499999999999998e+00 2.0499999999999998e+00
ITEM: ATOMS id type x y z mux muy muz 
1 1 -5.0984 -0.0997056 -0.020705 -0 -0 0 
2 1 -0.052987 5.08784 0.0338042 -0 -0 0 
3 1 4.96155 0.0843649 -0.0175084 -0 -0 0 
4 2 -5 0 0 2 0 0 
5 2 0 5 0 0 2 0 
6 3 5 0 0 0 0 0 
ITEM: TIMESTEP
6993
ITEM: NUMBER OF ATOMS
6
ITEM: BOX BOUNDS pp pp ff
-1.0000000000000000e+01 1.0000000000000000e+01
-1.0000000000000000e+01 1.0000000000000000e+01
-2.0499999999999998e+00 2.0499999999999998e+00
ITEM: ATOMS id type x y z mux muy muz 
1 1 -5.10786 0.00437337 -0.00481707 0 -0 0 
2 1 -0.0674904 5.12326 0.0522796 0 -0 0 
3 1 5.00687 0.112007 -0.00411827 0 -0 0 
4 2 -5 0 0 2 0 0 
5 2 0 5 0 0 2 0 
6 3 5 0 0 0 0 0 
ITEM: TIMESTEP
7326
ITEM: NUMBER OF ATOMS
6
ITEM: BOX BOUNDS pp pp ff
-1.0000000000000000e+01 1.0000000000000000e+01
-1.0000000000000000e+01 1.0000000000000000e+01
-2.0499999999999998e+00 2.0499999999999998e+00
ITEM: ATOMS id type x y z mux muy muz 
1 1 -5.09593 -0.0128213 0.0216996 -0 0 0 
2 1 -0.0818891 5.08603 -0.0260648 -0 0 0 
3 1 5.05013 0.0312308 -0.0209031 -0 0 0 
4 2 -5 0 0 2 0 0 
5 2 0 5 0 0 2 0 
6 3 5 0 0 0 0 0 
ITEM: TIMESTEP
7659
ITEM: NUMBER OF ATOMS
6
ITEM: BOX BOUNDS pp pp ff
-1.0000000000000000e+01 1.0000000000000000e+01
-1.0000000000000000e+01 1.0000000000000000e+01
-2.0499999999999998e+00 2.0499999999999998e+00
ITEM: ATOMS id type x y z mux muy muz 
1 1 -5.02062 0.0788458 -0.0119813 -0 -0 0 
2 1 -0.02623 5.08342 -0.0171102 -0 -0 0 
3 1 5.0083 -0.0573949 -0.029578 -0 -0 0 
4 2 -5 0 0 2 0 0 
5 2 0 5 0 0 2 0 
6 3 5 0 0 0 0 0 
ITEM: TIMESTEP
7992
ITEM: NUMBER OF ATOMS
6
ITEM: BOX BOUNDS pp pp ff
-1.0000000000000000e+01 1.0000000000000000e+01
-1.0000000000000000e+01 1.0000000000000000e+01
-2.0499999999999998e+00 2.0499999999999998e+00
ITEM: ATOMS id type x y z mux muy muz 
1 1 -5.03 0.0872161 0.0362585 0 -0 0 
2 1 0.0064498 5.01121 0.0128813 0 -0 0 
3 1 4.88709 -0.146074 0.000783244 0 -0 0 
4 2 -5 0 0 2 0 0 
5 2 0 5 0 0 2 0 
6 3 5 0 0 0 0 0 
ITEM: TIMESTEP
8325
ITEM: NUMBER OF ATOMS
6
ITEM: BOX BOUNDS pp pp ff
-1.0000000000000000e+01 1.0000000000000000e+01
-1.0000000000000000e+01 1.0000000000000000e+01
-2.0499999999999998e+00 2.0499999999999998e+00
ITEM: ATOMS id type x y z mux muy muz 
1 1 -5.1776 0.175702 0.00592874 0 0 0 
2 1 -0.0478944 5.0942 0.00715576 0 0 0 
3 1 4.86262 -0.0740609 0.0341427 0 0 0 
4 2 -5 0 0 2 0 0 
5 2 0 5 0 0 2 0 
6 3 5 0 0 0 0 0 
ITEM: TIMESTEP
8658
ITEM: NUMBER OF ATOMS
6
ITEM: BOX BOUNDS pp pp ff
-1.0000000000000000e+01 1.0000000000000000e+01
-1.0000000000000000e+01 1.0000000000000000e+01
-2.0499999999999998e+00 2.0499999999999998e+00
ITEM: ATOMS id type x y z mux muy muz 
1 1 -5.12593 0.0646146 0.0326649 -0 -0 0 
2 1 0.114913 5.13288 0.0302457 -0 -0 0 
3 1 4.82701 0.139812 -0.00300051 -0 -0 0 
4 2 -5 0 0 2 0 0 
5 2 0 5 0 0 2 0 
6 3 5 0 0 0 0 0 
ITEM: TIMESTEP
8991
ITEM: NUMBER OF ATOMS
6
ITEM: BOX BOUNDS pp pp ff
-1.0000000000000000e+01 1.0000000000000000e+01
-1.0000000000000000e+01 1.0000000000000000e+01
-2.0499999999999998e+00 2.0499999999999998e+00
ITEM: ATOMS id type x y z mux muy muz 
1 1 -5.11097 0.163 -0.00928941 0 -0 0 
2 1 0.0161117 5.20426 0.0326443 0 -0 0 
3 1 4.82637 0.21427 0.0502812 0 -0 0 
4 2 -5 0 0 2 0 0 
5 2 0 5 0 0 2 0 
6 3 5 0 0 0 0 0 
ITEM: TIMESTEP
9324
ITEM: NUMBER OF ATOMS
6
ITEM: BOX BOUNDS pp pp ff
-1.0000000000000000e+01 1.0000000000000000e+01
-1.0000000000000000e+01 1.0000000000000000e+01
-2.0499999999999998e+00 2.0499999999999998e+00
ITEM: ATOMS id type x y z mux muy muz 
1 1 -5.15917 0.140216 0.040002 0 0 0 
2 1 0.000343655 5.10315 -0.00724259 0 0 0 
3 1 4.84618 0.195503 -0.0329561 0 0 0 
4 2 -5 0 0 2 0 0 
5 2 0 5 0 0 2 0 
6 3 5 0 0 0 0 0 
ITEM: TIMESTEP
9657
ITEM: NUMBER OF ATOMS
6
ITEM: BOX BOUNDS pp pp ff
-1.0000000000000000e+01 1.0000000000000000e+01
-1.0000000000000000e+01 1.0000000000000000e+01
-2.0499999999999998e+00 2.0499999999999998e+00
ITEM: ATOMS id type x y z mux muy muz 
1 1 -5.10305 0.154461 -0.0275645 -0 -0 0 
2 1 0.0659324 5.15843 -0.0302219 -0 -0 0 
3 1 4.79604 0.112472 0.0118269 -0 -0 0 
4 2 -5 0 0 2 0 0 
5 2 0 5 0 0 2 0 
6 3 5 0 0 0 0 0 
ITEM: TIMESTEP
9990
ITEM: NUMBER OF ATOMS
6
ITEM: BOX BOUNDS pp pp ff
-1.0000000000000000e+01 1.0000000000000000e+01
-1.0000000000000000e+01 1.0000000000000000e+01
-2.0499999999999998e+00 2.0499999999999998e+00
ITEM: ATOMS id type x y z mux muy muz 
1 1 -5.14258 0.0167907 -0.0343763 0 -0 0 
2 1 0.0654222 5.25508 0.0419508 0 -0 0 
3 1 4.84585 -0.0629715 -0.0382558 0 -0 0 
4 2 -5 0 0 2 0 0 
5 2 0 5 0 0 2 0 
6 3 5 0 0 0 0 0 
ITEM: TIMESTEP
10323
ITEM: NUMBER OF ATOMS
6
ITEM: BOX BOUNDS pp pp ff
-1.0000000000000000e+01 1.0000000000000000e+01
-1.0000000000000000e+01 1.0000000000000000e+01
-2.0499999999999998e+00 2.0499999999999998e+00
ITEM: ATOMS id type x y z mux muy muz 
1 1 -5.11477 -0.0872258 0.0115145 0 0 0 
2 1 0.162887 5.23407 0.0412623 0 0 0 
3 1 4.73827 0.0127888 -0.0344365 0 0 0 
4 2 -5 0 0 2 0 0 
5 2 0 5 0 0 2 0 
6 3 5 0 0 0 0 0 
ITEM: TIMESTEP
10656
ITEM: NUMBER OF ATOMS
6
ITEM: BOX BOUNDS pp pp ff
-1.0000000000000000e+01 1.0000000000000000e+01
-1.0000000000000000e+01 1.0000000000000000e+01
-2.0499999999999998e+00 2.0499999999999998e+00
ITEM: ATOMS id type x y z mux muy muz 
1 1 -5.07775 -0.0819347 0.00721828 -0 -0 0 
2 1 0.123569 5.23853 -0.037529 -0 -0 0 
3 1 4.80858 -0.050051 -0.0528961 -0 -0 0 
4 2 -5 0 0 2 0 0 
5 2 0 5 0 0 2 0 
6 3 5 0 0 0 0 0 
ITEM: TIMESTEP
10989
ITEM: NUMBER OF ATOMS
6
ITEM: BOX BOUNDS pp pp ff
-1.0000000000000000e+01 1.0000000000000000e+01
-1.0000000000000000e+01 1.0000000000000000e+01
-2.0499999999999998e+00 2.0499999999999998e+00
ITEM: ATOMS id type x y z mux muy muz 
1 1 -5.14373 -0.140506 0.000447179 0 -0 0 
2 1 0.128299 5.22201 -0.0528063 0 -0 0 
3 1 4.87217 -0.0460713 0.0172808 0 -0 0 
4 2 -5 0 0 2 0 0 
5 2 0 5 0 0 2 0 
6 3 5 0 0 0 0 0 
ITEM: TIMESTEP
11322
ITEM: NUMBER OF ATOMS
6
ITEM: BOX BOUNDS pp pp ff
-1.0000000000000000e+01 1.0000000000000000e+01
-1.0000000000000000e+01 1.0000000000000000e+01
-2.0499999999999998e+00 2.0499999999999998e+00
ITEM: ATOMS id type x y z mux muy muz 
1 1 -5.16293 -0.108326 0.0316509 0 0 0 
2 1 0.146209 5.18859 -0.0280887 0 0 0 
3 1 5.05055 -0.0819841 0.0195995 0 0 0 
4 2 -5 0 0 2 0 0 
5 2 0 5 0 0 2 0 
6 3 5 0 0 0 0 0 
ITEM: TIMESTEP
11655
ITEM: NUMBER OF ATOMS
6
ITEM: BOX BOUNDS pp pp ff
-1.0000000000000000e+01 1.0000000000000000e+01
-1.0000000000000000e+01 1.0000000000000000e+01
-2.0499999999999998e+00 2.0499999999999998e+00
ITEM: ATOMS id type x y z mux muy muz 
1 1 -5.13199 -0.0687542 0.00388803 -0 -0 0 
2 1 0.0897304 5.24861 0.0158115 -0 -0 0 
3 1 5.03743 -0.100416 -0.00278983 -0 -0 0 
4 2 -5 0 0 2 0 0 
5 2 0 5 0 0 2 0 
6 3 5 0 0 0 0 0 
ITEM: TIMESTEP
11988
ITEM: NUMBER OF ATOMS
6
ITEM: BOX BOUNDS pp pp ff
-1.0000000000000000e+01 1.0000000000000000e+01
-1.0000000000000000e+01 1.0000000000000000e+01
-2.0499999999999998e+00 2.0499999999999998e+00
ITEM: ATOMS id type x y z mux muy muz 
1 1 -5.17256 -0.119294 0.0242736 0 -0 0 
2 1 0.131984 5.3215 0.0221003 0 -0 0 
3 1 4.90396 -0.0837856 0.0440274 0 -0 0 
4 2 -5 0 0 2 0 0 
5 2 0 5 0 0 2 0 
6 3 5 0 0 0 0 0 
ITEM: TIMESTEP
12321
ITEM: NUMBER OF ATOMS
6
ITEM: BOX BOUNDS pp pp ff
-1.0000000000000000e+01 1.0000000000000000e+01
-1.0000000000000000e+01 1.0000000000000000e+01
-2.0499999999999998e+00 2.0499999999999998e+00
ITEM: ATOMS id type x y z mux muy muz 
1 1 -5.28718 -0.075037 -8.40351e-05 0 0 0 
2 1 0.00400447 5.31743 -0.0458326 0 0 0 
3 1 4.87957 0.0566472 -0.00129213 0 0 0 
4 2 -5 0 0 2 0 0 
5 2 0 5 0 0 2 0 
6 3 5 0 0 0 0 0 
ITEM: TIMESTEP
12654
ITEM: NUMBER OF ATOMS
6
ITEM: BOX BOUNDS pp pp ff
-1.0000000000000000e+01 1.0000000000000000e+01
-1.0000000000000000e+01 1.0000000000000000e+01
-2.0499999999999998e+00 2.0499999999999998e+00
ITEM: ATOMS id type x y z mux muy muz 
1 1 -5.25944 -0.106907 -0.00987441 -0 -0 0 
2 1 0.0449495 5.24208 -0.0422014 -0 -0 0 
3 1 4.92047 0.0241455 0.0436224 -0 -0 0 
4 2 -5 0 0 2 0 0 
5 2 0 5 0 0 2 0 
6 3 5 0 0 0 0 0 
ITEM: TIMESTEP
12987
ITEM: NUMBER OF ATOMS
6
ITEM: BOX BOUNDS pp pp ff
-1.0000000000000000e+01 1.0000000000000000e+01
-1.0000000000000000e+01 1.0000000000000000e+01
-2.0499999999999998e+00 2.0499999999999998e+00
ITEM: ATOMS id type x y z mux muy muz 
1 1 -5.18825 -0.101358 0.0230529 0 -0 0 
2 1 0.0679777 5.29974 0.0451638 0 -0 0 
3 1 4.90597 0.091375 0.0516029 0 -0 0 
4 2 -5 0 0 2 0 0 
5 2 0 5 0 0 2 0 
6 3 5 0 0 0 0 0 
ITEM: TIMESTEP
13320
ITEM: NUMBER OF ATOMS
6
ITEM: BOX BOUNDS pp pp ff
-1.0000000000000000e+01 1.0000000000000000e+01
-1.0000000000000000e+01 1.0000000000000000e+01
-2.0499999999999998e+00 2.0499999999999998e+00
ITEM: ATOMS id type x y z mux muy muz 
1 1 -5.20578 -0.160193 -0.0302712 0 0 0 
2 1 0.127298 5.33522 0.0138736 0 0 0 
3 1 4.9537 0.0723645 -0.00226136 0 0 0 
4 2 -5 0 0 2 0 0 
5 2 0 5 0 0 2 0 
6 3 5 0 0 0 0 0 
ITEM: TIMESTEP
13653
ITEM: NUMBER OF ATOMS
6
ITEM: BOX BOUNDS pp pp ff
-1.0000000000000000e+01 1.0000000000000000e+01
-1.0000000000000000e+01 1.0000000000000000e+01
-2.0499999999999998e+00 2.0499999999999998e+00
ITEM: ATOMS id type x y z mux muy muz 
1 1 -5.30624 -0.0052777 0.000216079 -0 -0 0 
2 1 0.0434138 5.44978 -0.0388524 -0 -0 0 
3 1 4.91126 -0.00514826 -0.0234683 -0 -0 0 
4 2 -5 0 0 2 0 0 
5 2 0 5 0 0 2 0 
6 3 5 0 0 0 0 0 
ITEM: TIMESTEP
13986
ITEM: NUMBER OF ATOMS
6
ITEM: BOX BOUNDS pp pp ff
-1.0000000000000000e+01 1.0000000000000000e+01
-1.0000000000000000e+01 1.0000000000000000e+01
-2.0499999999999998e+00 2.0499999999999998e+00
ITEM: ATOMS id type x y z mux muy muz 
1 1 -5.29198 0.0198234 -0.0538548 0 -0 0 
2 1 0.0937336 5.42488 -0.0466196 0 -0 0 
3 1 4.91922 -0.0629049 -0.0399861 0 -0 0 
4 2 -5 0 0 2 0 0 
5 2 0 5 0 0 2 0 
6 3 5 0 0 0 0 0 
ITEM: TIMESTEP
14319
ITEM: NUMBER OF ATOMS
6
ITEM: BOX BOUNDS pp pp ff
-1.0000000000000000e+01 1.0000000000000000e+01
-1.0000000000000000e+01 1.0000000000000000e+01
-2.0499999999999998e+00 2.0499999999999998e+00
ITEM: ATOMS id type x y z mux muy muz 
1 1 -5.28542 0.0478904 -0.0261632 0 0 0 
2 1 -0.0110164 5.41706 0.0381036 0 0 0 
3 1 4.96537 -0.152831 -0.0356838 0 0 0 
4 2 -5 0 0 2 0 0 
5 2 0 5 0 0 2 0 
6 3 5 0 0 0 0 0 
ITEM: TIMESTEP
14652
ITEM: NUMBER OF ATOMS
6
ITEM: BOX BOUNDS pp pp ff
-1.0000000000000000e+01 1.0000000000000000e+01
-1.0000000000000000e+01 1.0000000000000000e+01
-2.0499999999999998e+00 2.0499999999999998e+00
ITEM: ATOMS id type x y z mux muy muz 
1 1 -5.29119 0.137641 0.00716522 -0 -0 0 
2 1 -0.0891275 5.45481 0.00643198 -0 -0 0 
3 1 4.9391 -0.163114 0.0153835 -0 -0 0 
4 2 -5 0 0 2 0 0 
5 2 0 5 0 0 2 0 
6 3 5 0 0 0 0 0 
ITEM: TIMESTEP
14985
ITEM: NUMBER OF ATOMS
6
ITEM: BOX BOUNDS pp pp ff
-1.0000000000000000e+01 1.0000000000000000e+01
-1.0000000000000000e+01 1.0000000000000000e+01
-2.0499999999999998e+00 2.0499999999999998e+00
ITEM: ATOMS id type x y z mux muy muz 
1 1 -5.36569 -0.00673961 0.00442767 0 -0 0 
2 1 -0.0388558 5.58011 0.0360406 0 -0 0 
3 1 4.98463 -0.184848 0.03845 0 -0 0 
4 2 -5 0 0 2 0 0 
5 2 0 5 0 0 2 0 
6 3 5 0 0 0 0 0 
ITEM: TIMESTEP
15318
ITEM: NUMBER OF ATOMS
6
ITEM: BOX BOUNDS pp pp ff
-1.0000000000000000e+01 1.0000000000000000e+01
-1.0000000000000000e+01 1.0000000000000000e+01
-2.0499999999999998e+00 2.0499999999999998e+00
ITEM: ATOMS id type x y z mux muy muz 
1 1 -5.45596 -0.0325243 -0.0587474 0 0 0 
2 1 -0.0502663 5.48734 0.036424 0 0 0 
3 1 4.99299 -0.134766 0.00691904 0 0 0 
4 2 -5 0 0 2 0 0 
5 2 0 5 0 0 2 0 
6 3 5 0 0 0 0 0 
ITEM: TIMESTEP
15651
ITEM: NUMBER OF ATOMS
6
ITEM: BOX BOUNDS pp pp ff
-1.0000000000000000e+01 1.0000000000000000e+01
-1.0000000000000000e+01 1.0000000000000000e+01
-2.0499999999999998e+00 2.0499999999999998e+00
ITEM: ATOMS id type x y z mux muy muz 
1 1 -5.47869 -0.0673428 -0.0185777 -0 -0 0 
2 1 0.00457251 5.50699 0.0157097 -0 -0 0 
3 1 4.93944 -0.128929 0.0181347 -0 -0 0 
4 2 -5 0 0 2 0 0 
5 2 0 5 0 0 2 0 
6 3 5 0 0 0 0 0 
ITEM: TIMESTEP
15984
ITEM: NUMBER OF ATOMS
6
ITEM: BOX BOUNDS pp pp ff
-1.0000000000000000e+01 1.0000000000000000e+01
-1.0000000000000000e+01 1.0000000000000000e+01
-2.0499999999999998e+00 2.0499999999999998e+00
ITEM: ATOMS id type x y z mux muy muz 
1 1 -5.49925 -0.154627 0.00540254 0 -0 0 
2 1 0.0513975 5.4357 0.0580695 0 -0 0 
3 1 5.00801 -0.116077 0.0248164 0 -0 0 
4 2 -5 0 0 2 0 0 
5 2 0 5 0 0 2 0 
6 3 5 0 0 0 0 0 
ITEM: TIMESTEP
16317
ITEM: NUMBER OF ATOMS
6
ITEM: BOX BOUNDS pp pp ff
-1.0000000000000000e+01 1.0000000000000000e+01
-1.0000000000000000e+01 1.0000000000000000e+01
-2.0499999999999998e+00 2.0499999999999998e+00
ITEM: ATOMS id type x y z mux muy muz 
1 1 -5.53973 -0.140238 -0.0392711 0 0 0 
2 1 0.04315 5.39079 -0.0365838 0 0 0 
3 1 5.04512 -0.0742128 0.0494858 0 0 0 
4 2 -5 0 0 2 0 0 
5 2 0 5 0 0 2 0 
6 3 5 0 0 0 0 0 
ITEM: TIMESTEP
16650
ITEM: NUMBER OF ATOMS
6
ITEM: BOX BOUNDS pp pp ff
-1.0000000000000000e+01 1.0000000000000000e+01
-1.0000000000000000e+01 1.0000000000000000e+01
-2.0499999999999998e+00 2.0499999999999998e+00
ITEM: ATOMS id type x y z mux muy muz 
1 1 -5.49912 -0.23697 -0.0176057 -0 0 0 
2 1 0.0348361 5.53428 0.0030195 -0 0 0 
3 1 4.98177 0.00944353 0.0289903 -0 0 0 
4 2 -5 0 0 2 0 0 
5 2 0 5 0 0 2 0 
6 3 5 0 0 0 0 0 
ITEM: TIMESTEP
16983
ITEM: NUMBER OF ATOMS
6
ITEM: BOX BOUNDS pp pp ff
-1.0000000000000000e+01 1.0000000000000000e+01
-1.0000000000000000e+01 1.0000000000000000e+01
-2.0499999999999998e+00 2.0499999999999998e+00
ITEM: ATOMS id type x y z mux muy muz 
1 1 -5.29837 -0.23622 0.000566955 0 -0 0 
2 1 0.0551631 5.38154 -0.0378554 0 -0 0 
3 1 4.98413 -0.0259551 -0.016152 0 -0 0 
4 2 -5 0 0 2 0 0 
5 2 0 5 0 0 2 0 
6 3 5 0 0 0 0 0 
ITEM: TIMESTEP
17316
ITEM: NUMBER OF ATOMS
6
ITEM: BOX BOUNDS pp pp ff
-1.0000000000000000e+01 1.0000000000000000e+01
-1.0000000000000000e+01 1.0000000000000000e+01
-2.0499999999999998e+00 2.0499999999999998e+00
ITEM: ATOMS id type x y z mux muy muz 
1 1 -5.32481 -0.191485 -0.033449 0 0 0 
2 1 -0.0586627 5.40409 -0.0579492 0 0 0 
3 1 5.04538 0.000822875 0.033888 0 0 0 
4 2 -5 0 0 2 0 0 
5 2 0 5 0 0 2 0 
6 3 5 0 0 0 0 0 
ITEM: TIMESTEP
17649
ITEM: NUMBER OF ATOMS
6
ITEM: BOX BOUNDS pp pp ff
-1.0000000000000000e+01 1.0000000000000000e+01
-1.0000000000000000e+01 1.0000000000000000e+01
-2.0499999999999998e+00 2.0499999999999998e+00
ITEM: ATOMS id type x y z mux muy muz 
1 1 -5.37831 -0.203888 -0.042872 -0 0 0 
2 1 -0.145739 5.34755 0.0390791 -0 0 0 
3 1 4.9384 -0.0738573 0.0384575 -0 0 0 
4 2 -5 0 0 2 0 0 
5 2 0 5 0 0 2 0 
6 3 5 0 0 0 0 0 
ITEM: TIMESTEP
17982
ITEM: NUMBER OF ATOMS
6
ITEM: BOX BOUNDS pp pp ff
-1.0000000000000000e+01 1.0000000000000000e+01
-1.0000000000000000e+01 1.0000000000000000e+01
-2.0499999999999998e+00 2.0499999999999998e+00
ITEM: ATOMS id type x y z mux muy muz 
1 1 -5.3934 -0.16281 -0.019926 0 -0 0 
2 1 -0.127572 5.3297 -0.0463502 0 -0 0 
3 1 5.04963 0.00462093 0.0327246 0 -0 0 
4 2 -5 0 0 2 0 0 
5 2 0 5 0 0 2 0 
6 3 5 0 0 0 0 0 
ITEM: TIMESTEP
18315
ITEM: NUMBER OF ATOMS
6
ITEM: BOX BOUNDS pp pp ff
-1.0000000000000000e+01 1.0000000000000000e+01
-1.0000000000000000e+01 1.0000000000000000e+01
-2.0499999999999998e+00 2.0499999999999998e+00
ITEM: ATOMS id type x y z mux muy muz 
1 1 -5.45905 -0.149161 -0.0181926 0 0 0 
2 1 -0.198302 5.32736 -0.0470295 0 0 0 
3 1 5.05812 0.106009 0.0398609 0 0 0 
4 2 -5 0 0 2 0 0 
5 2 0 5 0 0 2 0 
6 3 5 0 0 0 0 0 
ITEM: TIMESTEP
18648
ITEM: NUMBER OF ATOMS
6
ITEM: BOX BOUNDS pp pp ff
-1.0000000000000000e+01 1.0000000000000000e+01
-1.0000000000000000e+01 1.0000000000000000e+01
-2.0499999999999998e+00 2.0499999999999998e+00
ITEM: ATOMS id type x y z mux muy muz 
1 1 -5.4558 -0.0841683 0.0527688 -0 0 0 
2 1 -0.095346 5.37776 0.041005 -0 0 0 
3 1 5.0098 0.0413417 0.0210435 -0 0 0 
4 2 -5 0 0 2 0 0 
5 2 0 5 0 0 2 0 
6 3 5 0 0 0 0 0 
ITEM: TIMESTEP
18981
ITEM: NUMBER OF ATOMS
6
ITEM: BOX BOUNDS pp pp ff
-1.0000000000000000e+01 1.0000000000000000e+01
-1.0000000000000000e+01 1.0000000000000000e+01
-2.0499999999999998e+00 2.0499999999999998e+00
ITEM: ATOMS id type x y z mux muy muz 
1 1 -5.50887 0.0342803 0.0225429 0 -0 0 
2 1 -0.0606041 5.40943 0.0443572 0 -0 0 
3 1 4.99507 0.0115969 0.0267274 0 -0 0 
4 2 -5 0 0 2 0 0 
5 2 0 5 0 0 2 0 
6 3 5 0 0 0 0 0 
ITEM: TIMESTEP
19314
ITEM: NUMBER OF ATOMS
6
ITEM: BOX BOUNDS pp pp ff
-1.0000000000000000e+01 1.0000000000000000e+01
-1.0000000000000000e+01 1.0000000000000000e+01
-2.0499999999999998e+00 2.0499999999999998e+00
ITEM: ATOMS id type x y z mux muy muz 
1 1 -5.48697 0.0585658 -0.0211303 0 0 0 
2 1 -0.103151 5.31184 0.00550336 0 0 0 
3 1 5.02555 0.00546088 0.0348388 0 0 0 
4 2 -5 0 0 2 0 0 
5 2 0 5 0 0 2 0 
6 3 5 0 0 0 0 0 
ITEM: TIMESTEP
19647
ITEM: NUMBER OF ATOMS
6
ITEM: BOX BOUNDS pp pp ff
-1.0000000000000000e+01 1.0000000000000000e+01
-1.0000000000000000e+01 1.0000000000000000e+01
-2.0499999999999998e+00 2.0499999999999998e+00
ITEM: ATOMS id type x y z mux muy muz 
1 1 -5.43761 -0.0686096 -0.036113 -0 0 0 
2 1 -0.0104484 5.26412 0.013763 -0 0 0 
3 1 5.1323 -0.0645619 -0.0314751 -0 0 0 
4 2 -5 0 0 2 0 0 
5 2 0 5 0 0 2 0 
6 3 5 0 0 0 0 0 
ITEM: TIMESTEP
19980
ITEM: NUMBER OF ATOMS
6
ITEM: BOX BOUNDS pp pp ff
-1.0000000000000000e+01 1.0000000000000000e+01
-1.0000000000000000e+01 1.0000000000000000e+01
-2.0499999999999998e+00 2.0499999999999998e+00
ITEM: ATOMS id type x y z mux muy muz 
1 1 -5.34915 -0.0747608 0.000903291 0 -0 0 
2 1 0.0967083 5.27476 0.02143 0 -0 0 
3 1 5.12104 0.0387205 0.0164157 0 -0 0 
4 2 -5 0 0 2 0 0 
5 2 0 5 0 0 2 0 
6 3 5 0 0 0 0 0 
ITEM: TIMESTEP
20313
ITEM: NUMBER OF ATOMS
6
ITEM: BOX BOUNDS pp pp ff
-1.0000000000000000e+01 1.0000000000000000e+01
-1.0000000000000000e+01 1.0000000000000000e+01
-2.0499999999999998e+00 2.0499999999999998e+00
ITEM: ATOMS id type x y z mux muy muz 
1 1 -5.24386 -0.158781 0.024268 0 0 0 
2 1 0.0410672 5.25644 0.0427199 0 0 0 
3 1 5.2105 -0.0412173 -0.00170304 0 0 0 
4 2 -5 0 0 2 0 0 
5 2 0 5 0 0 2 0 
6 3 5 0 0 0 0 0 
ITEM: TIMESTEP
20646
ITEM: NUMBER OF ATOMS
6
ITEM: BOX BOUNDS pp pp ff
-1.0000000000000000e+01 1.0000000000000000e+01
-1.0000000000000000e+01 1.0000000000000000e+01
-2.0499999999999998e+00 2.0499999999999998e+00
ITEM: ATOMS id type x y z mux muy muz 
1 1 -5.1623 -0.152994 0.0155681 -0 0 0 
2 1 0.0810527 5.36743 0.0441856 -0 0 0 
3 1 5.23642 0.0562688 -0.0185688 -0 0 0 
4 2 -5 0 0 2 0 0 
5 2 0 5 0 0 2 0 
6 3 5 0 0 0 0 0 
ITEM: TIMESTEP
20979
ITEM: NUMBER OF ATOMS
6
ITEM: BOX BOUNDS pp pp ff
-1.0000000000000000e+01 1.0000000000000000e+01
-1.0000000000000000e+01 1.0000000000000000e+01
-2.0499999999999998e+00 2.0499999999999998e+00
ITEM: ATOMS id type x y z mux muy muz 
1 1 -5.09084 -0.210783 -0.0064839 0 -0 0 
2 1 -0.00147198 5.29736 -0.0420318 0 -0 0 
3 1 5.23137 0.00466656 0.0538456 0 -0 0 
4 2 -5 0 0 2 0 0 
5 2 0 5 0 0 2 0 
6 3 5 0 0 0 0 0 
ITEM: TIMESTEP
21312
ITEM: NUMBER OF ATOMS
6
ITEM: BOX BOUNDS pp pp ff
-1.0000000000000000e+01 1.0000000000000000e+01
-1.0000000000000000e+01 1.0000000000000000e+01
-2.0499999999999998e+00 2.0499999999999998e+00
ITEM: ATOMS id type x y z mux muy muz 
1 1 -5.03529 -0.168257 0.0259856 0 0 0 
2 1 -0.0679735 5.2336 0.0431315 0 0 0 
3 1 5.26609 -0.0496787 -0.0195976 0 0 0 
4 2 -5 0 0 2 0 0 
5 2 0 5 0 0 2 0 
6 3 5 0 0 0 0 0 
ITEM: TIMESTEP
21645
ITEM: NUMBER OF ATOMS
6
ITEM: BOX BOUNDS pp pp ff
-1.0000000000000000e+01 1.0000000000000000e+01
-1.0000000000000000e+01 1.0000000000000000e+01
-2.0499999999999998e+00 2.0499999999999998e+00
ITEM: ATOMS id type x y z mux muy muz 
1 1 -4.99015 -0.126929 0.0231485 -0 0 0 
2 1 -0.0803082 5.24784 0.0191639 -0 0 0 
3 1 5.14809 0.0222277 -0.00947722 -0 0 0 
4 2 -5 0 0 2 0 0 
5 2 0 5 0 0 2 0 
6 3 5 0 0 0 0 0 
ITEM: TIMESTEP
21978
ITEM: NUMBER OF ATOMS
6
ITEM: BOX BOUNDS pp pp ff
-1.0000000000000000e+01 1.0000000000000000e+01
-1.0000000000000000e+01 1.0000000000000000e+01
-2.0499999999999998e+00 2.0499999999999998e+00
ITEM: ATOMS id type x y z mux muy muz 
1 1 -4.93513 -0.202051 0.00800489 0 -0 0 
2 1 -0.0897826 5.31323 -0.0337949 0 -0 0 
3 1 5.0896 0.0276084 0.0432173 0 -0 0 
4 2 -5 0 0 2 0 0 
5 2 0 5 0 0 2 0 
6 3 5 0 0 0 0 0 
ITEM: TIMESTEP
22311
ITEM: NUMBER OF ATOMS
6
ITEM: BOX BOUNDS pp pp ff
-1.0000000000000000e+01 1.0000000000000000e+01
-1.0000000000000000e+01 1.0000000000000000e+01
-2.0499999999999998e+00 2.0499999999999998e+00
ITEM: ATOMS id type x y z mux muy muz 
1 1 -5.00818 -0.158749 -0.0414313 0 0 0 
2 1 -0.0908779 5.33193 -0.00344547 0 0 0 
3 1 5.04245 0.128902 0.0152174 0 0 0 
4 2 -5 0 0 2 0 0 
5 2 0 5 0 0 2 0 
6 3 5 0 0 0 0 0 
ITEM: TIMESTEP
22644
ITEM: NUMBER OF ATOMS
6
ITEM: BOX BOUNDS pp pp ff
-1.0000000000000000e+01 1.0000000000000000e+01
-1.0000000000000000e+01 1.0000000000000000e+01
-2.0499999999999998e+00 2.0499999999999998e+00
ITEM: ATOMS id type x y z mux muy muz 
1 1 -5.03335 -0.135708 -0.0439039 -0 0 0 
2 1 -0.0465859 5.35076 0.00625072 -0 0 0 
3 1 5.12501 0.152742 0.0310755 -0 0 0 
4 2 -5 0 0 2 0 0 
5 2 0 5 0 0 2 0 
6 3 5 0 0 0 0 0 
ITEM: TIMESTEP
22977
ITEM: NUMBER OF ATOMS
6
ITEM: BOX BOUNDS pp pp ff
-1.0000000000000000e+01 1.0000000000000000e+01
-1.0000000000000000e+01 1.0000000000000000e+01
-2.0499999999999998e+00 2.0499999999999998e+00
ITEM: ATOMS id type x y z mux muy muz 
1 1 -4.99496 -0.102434 -0.0146394 0 -0 0 
2 1 -0.242349 5.31974 0.0131143 0 -0 0 
3 1 5.15021 0.0883262 0.057244 0 -0 0 
4 2 -5 0 0 2 0 0 
5 2 0 5 0 0 2 0 
6 3 5 0 0 0 0 0 
ITEM: TIMESTEP
23310
ITEM: NUMBER OF ATOMS
6
ITEM: BOX BOUNDS pp pp ff
-1.0000000000000000e+01 1.0000000000000000e+01
-1.0000000000000000e+01 1.0000000000000000e+01
-2.0499999999999998e+00 2.0499999999999998e+00
ITEM: ATOMS id type x y z mux muy muz 
1 1 -4.91196 -0.0855002 -0.0187843 0 0 0 