ITEM: TIMESTEP
0
ITEM: NUMBER OF ATOMS
6
ITEM: BOX BOUNDS pp pp ff
-1.0000000000000000e+01 1.0000000000000000e+01
-1.0000000000000000e+01 1.0000000000000000e+01
-2.0499999999999998e+00 2.0499999999999998e+00
ITEM: ATOMS id type x y z mux muy muz 
1 1 -5 0 0 0 0 0 
2 1 0 5 0 0 0 0 
3 1 5 0 0 0 0 0 
4 2 -5 0 0 2 0 0 
5 2 0 5 0 0 2 0 
6 3 5 0 0 0 0 0 
ITEM: TIMESTEP
333
ITEM: NUMBER OF ATOMS
6
ITEM: BOX BOUNDS pp pp ff
-1.0000000000000000e+01 1.0000000000000000e+01
-1.0000000000000000e+01 1.0000000000000000e+01
-2.0499999999999998e+00 2.0499999999999998e+00
ITEM: ATOMS id type x y z mux muy muz 
1 1 -5.03836 0.0613251 0.0347758 -0 0 0 
2 1 -0.0798306 5.03496 -0.0313512 -0 0 0 
3 1 4.90392 0.00176431 0.000318994 -0 0 0 
4 2 -5 0 0 2 0 0 
5 2 0 5 0 0 2 0 
6 3 5 0 0 0 0 0 
ITEM: TIMESTEP
666
ITEM: NUMBER OF ATOMS
6
ITEM: BOX BOUNDS pp pp ff
-1.0000000000000000e+01 1.0000000000000000e+01
-1.0000000000000000e+01 1.0000000000000000e+01
-2.0499999999999998e+00 2.0499999999999998e+00
ITEM: ATOMS id type x y z mux muy muz 
1 1 -4.9947 0.0680981 0.0105257 -0 -0 0 
2 1 -0.056426 4.96142 -0.0144774 -0 -0 0 
3 1 4.87002 -0.0532399 -0.00210519 -0 -0 0 
4 2 -5 0 0 2 0 0 
5 2 0 5 0 0 2 0 
6 3 5 0 0 0 0 0 
ITEM: TIMESTEP
999
ITEM: NUMBER OF ATOMS
6
ITEM: BOX BOUNDS pp pp ff
-1.0000000000000000e+01 1.0000000000000000e+01
-1.0000000000000000e+01 1.0000000000000000e+01
-2.0499999999999998e+00 2.0499999999999998e+00
ITEM: ATOMS id type x y z mux muy muz 
1 1 -5.09193 0.0251564 0.0566953 0 -0 0 
2 1 -0.0786663 4.97307 -0.0465456 0 -0 0 
3 1 4.85167 -0.0236245 -6.46177e-05 0 -0 0 
4 2 -5 0 0 2 0 0 
5 2 0 5 0 0 2 0 
6 3 5 0 0 0 0 0 
ITEM: TIMESTEP
1332
ITEM: NUMBER OF ATOMS
6
ITEM: BOX BOUNDS pp pp ff
-1.0000000000000000e+01 1.0000000000000000e+01
-1.0000000000000000e+01 1.0000000000000000e+01
-2.0499999999999998e+00 2.0499999999999998e+00
ITEM: ATOMS id type x y z mux muy muz 
1 1 -5.06554 0.0291114 0.0204121 -0 0 0 
2 1 -0.00425841 4.97429 -0.0155563 -0 0 0 
3 1 4.93755 -0.0153639 -0.00418658 -0 0 0 
4 2 -5 0 0 2 0 0 
5 2 0 5 0 0 2 0 
6 3 5 0 0 0 0 0 
ITEM: TIMESTEP
1665
ITEM: NUMBER OF ATOMS
6
ITEM: BOX BOUNDS pp pp ff
-1.0000000000000000e+01 1.0000000000000000e+01
-1.0000000000000000e+01 1.0000000000000000e+01
-2.0499999999999998e+00 2.0499999999999998e+00
ITEM: ATOMS id type x y z mux muy muz 
1 1 -4.96386 0.0348833 0.00615169 -0 -0 0 
2 1 0.0101332 4.88124 -0.0159188 -0 -0 0 
3 1 5.00537 0.0381258 0.0411802 -0 -0 0 
4 2 -5 0 0 2 0 0 
5 2 0 5 0 0 2 0 
6 3 5 0 0 0 0 0 
ITEM: TIMESTEP
1998
ITEM: NUMBER OF ATOMS
6
ITEM: BOX BOUNDS pp pp ff
-1.0000000000000000e+01 1.0000000000000000e+01
-1.0000000000000000e+01 1.0000000000000000e+01
-2.0499999999999998e+00 2.0499999999999998e+00
ITEM: ATOMS id type x y z mux muy muz 
1 1 -4.8558 0.00650468 0.040812 0 -0 0 
2 1 0.102238 4.82223 -0.0398485 0 -0 0 
3 1 4.98833 -0.0203377 -0.0190883 0 -0 0 
4 2 -5 0 0 2 0 0 
5 2 0 5 0 0 2 0 
6 3 5 0 0 0 0 0 
ITEM: TIMESTEP
2331
ITEM: NUMBER OF ATOMS
6
ITEM: BOX BOUNDS pp pp ff
-1.0000000000000000e+01 1.0000000000000000e+01
-1.0000000000000000e+01 1.0000000000000000e+01
-2.0499999999999998e+00 2.0499999999999998e+00
ITEM: ATOMS id type x y z mux muy muz 
1 1 -4.90473 -0.011086 0.0509031 -0 0 0 
2 1 -0.0718756 4.84892 -0.0528651 -0 0 0 
3 1 4.95903 -0.18726 -0.0528379 -0 0 0 
4 2 -5 0 0 2 0 0 
5 2 0 5 0 0 2 0 
6 3 5 0 0 0 0 0 
ITEM: TIMESTEP
2664
ITEM: NUMBER OF ATOMS
6
ITEM: BOX BOUNDS pp pp ff
-1.0000000000000000e+01 1.0000000000000000e+01
-1.0000000000000000e+01 1.0000000000000000e+01
-2.0499999999999998e+00 2.0499999999999998e+00
ITEM: ATOMS id type x y z mux muy muz 
1 1 -4.76992 -0.078915 0.0448938 -0 -0 0 
2 1 -0.0216492 4.70683 -0.0488787 -0 -0 0 
3 1 5.02371 -0.186092 0.0195775 -0 -0 0 
4 2 -5 0 0 2 0 0 
5 2 0 5 0 0 2 0 
6 3 5 0 0 0 0 0 
ITEM: TIMESTEP
2997
ITEM: NUMBER OF ATOMS
6
ITEM: BOX BOUNDS pp pp ff
-1.0000000000000000e+01 1.0000000000000000e+01
-1.0000000000000000e+01 1.0000000000000000e+01
-2.0499999999999998e+00 2.0499999999999998e+00
ITEM: ATOMS id type x y z mux muy muz 
1 1 -4.79954 0.0635638 -0.017626 0 -0 0 
2 1 0.0772163 4.709 0.00410692 0 -0 0 
3 1 5.00629 -0.101326 0.0416116 0 -0 0 
4 2 -5 0 0 2 0 0 
5 2 0 5 0 0 2 0 
6 3 5 0 0 0 0 0 
ITEM: TIMESTEP
3330
ITEM: NUMBER OF ATOMS
6
ITEM: BOX BOUNDS pp pp ff
-1.0000000000000000e+01 1.0000000000000000e+01
-1.0000000000000000e+01 1.0000000000000000e+01
-2.0499999999999998e+00 2.0499999999999998e+00
ITEM: ATOMS id type x y z mux muy muz 
1 1 -4.79287 0.0655082 0.0350639 -0 0 0 
2 1 0.0167289 4.7699 0.019598 -0 0 0 
3 1 4.99861 -0.0917771 0.0515867 -0 0 0 
4 2 -5 0 0 2 0 0 
5 2 0 5 0 0 2 0 
6 3 5 0 0 0 0 0 
ITEM: TIMESTEP
3663
ITEM: NUMBER OF ATOMS
6
ITEM: BOX BOUNDS pp pp ff
-1.0000000000000000e+01 1.0000000000000000e+01
-1.0000000000000000e+01 1.0000000000000000e+01
-2.0499999999999998e+00 2.0499999999999998e+00
ITEM: ATOMS id type x y z mux muy muz 
1 1 -4.70565 0.0344571 -0.00888196 -0 -0 0 
2 1 0.0451734 4.79809 -0.0141459 -0 -0 0 
3 1 5.14686 -0.129027 -0.0348289 -0 -0 0 
4 2 -5 0 0 2 0 0 
5 2 0 5 0 0 2 0 
6 3 5 0 0 0 0 0 
ITEM: TIMESTEP
3996
ITEM: NUMBER OF ATOMS
6
ITEM: BOX BOUNDS pp pp ff
-1.0000000000000000e+01 1.0000000000000000e+01
-1.0000000000000000e+01 1.0000000000000000e+01
-2.0499999999999998e+00 2.0499999999999998e+00
ITEM: ATOMS id type x y z mux muy muz 
1 1 -4.67476 0.0129756 -0.0152329 0 -0 0 
2 1 0.0250584 4.70182 -0.0349223 0 -0 0 
3 1 5.07207 -0.0711181 0.0180629 0 -0 0 
4 2 -5 0 0 2 0 0 
5 2 0 5 0 0 2 0 
6 3 5 0 0 0 0 0 
ITEM: TIMESTEP
4329
ITEM: NUMBER OF ATOMS
6
ITEM: BOX BOUNDS pp pp ff
-1.0000000000000000e+01 1.0000000000000000e+01
-1.0000000000000000e+01 1.0000000000000000e+01
-2.0499999999999998e+00 2.0499999999999998e+00
ITEM: ATOMS id type x y z mux muy muz 
1 1 -4.66385 -0.0414745 -0.0363251 -0 0 0 
2 1 0.0667251 4.60906 -0.00700006 -0 0 0 
3 1 5.09044 -0.0586451 0.0080989 -0 0 0 
4 2 -5 0 0 2 0 0 
5 2 0 5 0 0 2 0 
6 3 5 0 0 0 0 0 
ITEM: TIMESTEP
4662
ITEM: NUMBER OF ATOMS
6
ITEM: BOX BOUNDS pp pp ff
-1.0000000000000000e+01 1.0000000000000000e+01
-1.0000000000000000e+01 1.0000000000000000e+01
-2.0499999999999998e+00 2.0499999999999998e+00
ITEM: ATOMS id type x y z mux muy muz 
1 1 -4.64085 -0.00851752 -0.0186252 -0 -0 0 
2 1 -0.104163 4.57371 0.0408773 -0 -0 0 
3 1 5.02765 -0.102828 0.00605829 -0 -0 0 
4 2 -5 0 0 2 0 0 
5 2 0 5 0 0 2 0 
6 3 5 0 0 0 0 0 
ITEM: TIMESTEP
4995
ITEM: NUMBER OF ATOMS
6
ITEM: BOX BOUNDS pp pp ff
-1.0000000000000000e+01 1.0000000000000000e+01
-1.0000000000000000e+01 1.0000000000000000e+01
-2.0499999999999998e+00 2.0499999999999998e+00
ITEM: ATOMS id type x y z mux muy muz 
1 1 -4.46263 -0.0115022 -0.00032707 0 -0 0 
2 1 -0.0233379 4.65288 -0.00337922 0 -0 0 
3 1 5.0095 -0.0459846 -0.0031299 0 -0 0 
4 2 -5 0 0 2 0 0 
5 2 0 5 0 0 2 0 
6 3 5 0 0 0 0 0 
ITEM: TIMESTEP
5328
ITEM: NUMBER OF ATOMS
6
ITEM: BOX BOUNDS pp pp ff
-1.0000000000000000e+01 1.0000000000000000e+01
-1.0000000000000000e+01 1.0000000000000000e+01
-2.0499999999999998e+00 2.0499999999999998e+00
ITEM: ATOMS id type x y z mux muy muz 
1 1 -4.48897 -0.0804749 -0.042891 -0 0 0 
2 1 -0.0728268 4.63268 0.0113601 -0 0 0 
3 1 4.99675 0.0469411 0.0426855 -0 0 0 
4 2 -5 0 0 2 0 0 
5 2 0 5 0 0 2 0 
6 3 5 0 0 0 0 0 
ITEM: TIMESTEP
5661
ITEM: NUMBER OF ATOMS
6
ITEM: BOX BOUNDS pp pp ff
-1.0000000000000000e+01 1.0000000000000000e+01
-1.0000000000000000e+01 1.0000000000000000e+01
-2.0499999999999998e+00 2.0499999999999998e+00
ITEM: ATOMS id type x y z mux muy muz 
1 1 -4.52887 -0.0336176 -0.016866 -0 -0 0 
2 1 -0.0517166 4.58818 -0.0131722 -0 -0 0 
3 1 5.03396 0.0329485 0.0433785 -0 -0 0 
4 2 -5 0 0 2 0 0 
5 2 0 5 0 0 2 0 
6 3 5 0 0 0 0 0 
ITEM: TIMESTEP
5994
ITEM: NUMBER OF ATOMS
6
ITEM: BOX BOUNDS pp pp ff
-1.0000000000000000e+01 1.0000000000000000e+01
-1.0000000000000000e+01 1.0000000000000000e+01
-2.0499999999999998e+00 2.0499999999999998e+00
ITEM: ATOMS id type x y z mux muy muz 
1 1 -4.59858 0.0423846 -0.0421517 0 -0 0 
2 1 -0.0439596 4.61977 -0.0321378 0 -0 0 
3 1 5.04384 -0.0690149 0.0272382 0 -0 0 
4 2 -5 0 0 2 0 0 
5 2 0 5 0 0 2 0 
6 3 5 0 0 0 0 0 
ITEM: TIMESTEP
6327
ITEM: NUMBER OF ATOMS
6
ITEM: BOX BOUNDS pp pp ff
-1.0000000000000000e+01 1.0000000000000000e+01
-1.0000000000000000e+01 1.0000000000000000e+01
-2.0499999999999998e+00 2.0499999999999998e+00
ITEM: ATOMS id type x y z mux muy muz 
1 1 -4.83093 0.060405 -0.0520689 -0 0 0 
2 1 -0.0576164 4.64994 -0.00112961 -0 0 0 
3 1 5.09097 -0.124561 0.0472506 -0 0 0 
4 2 -5 0 0 2 0 0 
5 2 0 5 0 0 2 0 
6 3 5 0 0 0 0 0 
ITEM: TIMESTEP
6660
ITEM: NUMBER OF ATOMS
6
ITEM: BOX BOUNDS pp pp ff
-1.0000000000000000e+01 1.0000000000000000e+01
-1.0000000000000000e+01 1.0000000000000000e+01
-2.0499999999999998e+00 2.0499999999999998e+00
ITEM: ATOMS id type x y z mux muy muz 
1 1 -4.84647 0.10969 -0.0287432 -0 -0 0 
2 1 -0.0792609 4.70643 -0.0430073 -0 -0 0 
3 1 5.14634 -0.192686 -0.0222932 -0 -0 0 
4 2 -5 0 0 2 0 0 
5 2 0 5 0 0 2 0 
6 3 5 0 0 0 0 0 
ITEM: TIMESTEP
6993
ITEM: NUMBER OF ATOMS
6
ITEM: BOX BOUNDS pp pp ff
-1.0000000000000000e+01 1.0000000000000000e+01
-1.0000000000000000e+01 1.0000000000000000e+01
-2.0499999999999998e+00 2.0499999999999998e+00
ITEM: ATOMS id type x y z mux muy muz 
1 1 -4.72519 0.0950695 -0.0507911 0 -0 0 
2 1 -0.070033 4.6217 0.028276 0 -0 0 
3 1 5.12311 -0.197281 -0.0495474 0 -0 0 
4 2 -5 0 0 2 0 0 
5 2 0 5 0 0 2 0 
6 3 5 0 0 0 0 0 
ITEM: TIMESTEP
7326
ITEM: NUMBER OF ATOMS
6
ITEM: BOX BOUNDS pp pp ff
-1.0000000000000000e+01 1.0000000000000000e+01
-1.0000000000000000e+01 1.0000000000000000e+01
-2.0499999999999998e+00 2.0499999999999998e+00
ITEM: ATOMS id type x y z mux muy muz 
1 1 -4.58508 0.164449 -0.0497803 -0 0 0 
2 1 -0.0487887 4.56857 0.017749 -0 0 0 
3 1 4.99539 -0.0571211 -0.0263053 -0 0 0 
4 2 -5 0 0 2 0 0 
5 2 0 5 0 0 2 0 
6 3 5 0 0 0 0 0 
ITEM: TIMESTEP
7659
ITEM: NUMBER OF ATOMS
6
ITEM: BOX BOUNDS pp pp ff
-1.0000000000000000e+01 1.0000000000000000e+01
-1.0000000000000000e+01 1.0000000000000000e+01
-2.0499999999999998e+00 2.0499999999999998e+00
ITEM: ATOMS id type x y z mux muy muz 
1 1 -4.53936 0.146902 -0.0224396 -0 -0 0 
2 1 -0.0570006 4.61458 0.0227907 -0 -0 0 
3 1 4.95551 -0.0999004 0.029424 -0 -0 0 
4 2 -5 0 0 2 0 0 
5 2 0 5 0 0 2 0 
6 3 5 0 0 0 0 0 
ITEM: TIMESTEP
7992
ITEM: NUMBER OF ATOMS
6
ITEM: BOX BOUNDS pp pp ff
-1.0000000000000000e+01 1.0000000000000000e+01
-1.0000000000000000e+01 1.0000000000000000e+01
-2.0499999999999998e+00 2.0499999999999998e+00
ITEM: ATOMS id type x y z mux muy muz 
1 1 -4.41655 0.139682 0.0367886 0 -0 0 
2 1 -0.0374294 4.65961 -0.00600089 0 -0 0 
3 1 4.90447 -0.22613 -0.0187694 0 -0 0 
4 2 -5 0 0 2 0 0 
5 2 0 5 0 0 2 0 
6 3 5 0 0 0 0 0 
ITEM: TIMESTEP
8325
ITEM: NUMBER OF ATOMS
6
ITEM: BOX BOUNDS pp pp ff
-1.0000000000000000e+01 1.0000000000000000e+01
-1.0000000000000000e+01 1.0000000000000000e+01
-2.0499999999999998e+00 2.0499999999999998e+00
ITEM: ATOMS id type x y z mux muy muz 
1 1 -4.40738 0.157534 -0.041785 0 0 0 
2 1 -0.0150775 4.64824 -0.0326741 0 0 0 
3 1 4.88782 -0.141227 0.0411943 0 0 0 
4 2 -5 0 0 2 0 0 
5 2 0 5 0 0 2 0 
6 3 5 0 0 0 0 0 
ITEM: TIMESTEP
8658
ITEM: NUMBER OF ATOMS
6
ITEM: BOX BOUNDS pp pp ff
-1.0000000000000000e+01 1.0000000000000000e+01
-1.0000000000000000e+01 1.0000000000000000e+01
-2.0499999999999998e+00 2.0499999999999998e+00
ITEM: ATOMS id type x y z mux muy muz 
1 1 -4.4745 0.230966 0.0129041 -0 -0 0 
2 1 0.0210563 4.55863 0.0495174 -0 -0 0 
3 1 4.83756 -0.112352 0.0228685 -0 -0 0 
4 2 -5 0 0 2 0 0 
5 2 0 5 0 0 2 0 
6 3 5 0 0 0 0 0 
ITEM: TIMESTEP
8991
ITEM: NUMBER OF ATOMS
6
ITEM: BOX BOUNDS pp pp ff
-1.0000000000000000e+01 1.0000000000000000e+01
-1.0000000000000000e+01 1.0000000000000000e+01
-2.0499999999999998e+00 2.0499999999999998e+00
ITEM: ATOMS id type x y z mux muy muz 
1 1 -4.42622 0.135644 -0.0390167 0 -0 0 
2 1 0.0577853 4.63951 -0.0412225 0 -0 0 
3 1 4.86698 -0.118293 0.0158215 0 -0 0 
4 2 -5 0 0 2 0 0 
5 2 0 5 0 0 2 0 
6 3 5 0 0 0 0 0 
ITEM: TIMESTEP
9324
ITEM: NUMBER OF ATOMS
6
ITEM: BOX BOUNDS pp pp ff
-1.0000000000000000e+01 1.0000000000000000e+01
-1.0000000000000000e+01 1.0000000000000000e+01
-2.0499999999999998e+00 2.0499999999999998e+00
ITEM: ATOMS id type x y z mux muy muz 
1 1 -4.28982 0.173006 0.0358014 0 0 0 
2 1 -0.00867302 4.51232 -0.0210787 0 0 0 
3 1 4.89715 -0.137875 0.00431657 0 0 0 
4 2 -5 0 0 2 0 0 
5 2 0 5 0 0 2 0 
6 3 5 0 0 0 0 0 
ITEM: TIMESTEP
9657
ITEM: NUMBER OF ATOMS
6
ITEM: BOX BOUNDS pp pp ff
-1.0000000000000000e+01 1.0000000000000000e+01
-1.0000000000000000e+01 1.0000000000000000e+01
-2.0499999999999998e+00 2.0499999999999998e+00
ITEM: ATOMS id type x y z mux muy muz 
1 1 -4.32024 0.116841 -0.00740347 -0 -0 0 
2 1 -0.0283089 4.51599 -0.0247401 -0 -0 0 
3 1 4.90083 -0.0913885 0.0412737 -0 -0 0 
4 2 -5 0 0 2 0 0 
5 2 0 5 0 0 2 0 
6 3 5 0 0 0 0 0 
ITEM: TIMESTEP
9990
ITEM: NUMBER OF ATOMS
6
ITEM: BOX BOUNDS pp pp ff
-1.0000000000000000e+01 1.0000000000000000e+01
-1.0000000000000000e+01 1.0000000000000000e+01
-2.0499999999999998e+00 2.0499999999999998e+00
ITEM: ATOMS id type x y z mux muy muz 
1 1 -4.35315 0.103981 0.032329 0 -0 0 
2 1 -0.00388945 4.57755 -0.0026697 0 -0 0 
3 1 4.73856 -0.127179 0.00166203 0 -0 0 
4 2 -5 0 0 2 0 0 
5 2 0 5 0 0 2 0 
6 3 5 0 0 0 0 0 
ITEM: TIMESTEP
10323
ITEM: NUMBER OF ATOMS
6
ITEM: BOX BOUNDS pp pp ff
-1.0000000000000000e+01 1.0000000000000000e+01
-1.0000000000000000e+01 1.0000000000000000e+01
-2.0499999999999998e+00 2.0499999999999998e+00
ITEM: ATOMS id type x y z mux muy muz 
1 1 -4.36609 0.0594332 0.00466402 0 0 0 
2 1 0.0800578 4.5497 -0.0367948 0 0 0 
3 1 4.71846 -0.157461 0.0198829 0 0 0 
4 2 -5 0 0 2 0 0 
5 2 0 5 0 0 2 0 
6 3 5 0 0 0 0 0 
ITEM: TIMESTEP
10656
ITEM: NUMBER OF ATOMS
6
ITEM: BOX BOUNDS pp pp ff
-1.0000000000000000e+01 1.0000000000000000e+01
-1.0000000000000000e+01 1.0000000000000000e+01
-2.0499999999999998e+00 2.0499999999999998e+00
ITEM: ATOMS id type x y z mux muy muz 
1 1 -4.441 0.0304293 -0.0278372 -0 -0 0 
2 1 0.0706789 4.56446 -0.0462435 -0 -0 0 
3 1 4.84037 -0.194993 0.0401588 -0 -0 0 
4 2 -5 0 0 2 0 0 
5 2 0 5 0 0 2 0 
6 3 5 0 0 0 0 0 
ITEM: TIMESTEP
10989
ITEM: NUMBER OF ATOMS
6
ITEM: BOX BOUNDS pp pp ff
-1.0000000000000000e+01 1.0000000000000000e+01
-1.0000000000000000e+01 1.0000000000000000e+01
-2.0499999999999998e+00 2.0499999999999998e+00
ITEM: ATOMS id type x y z mux muy muz 
1 1 -4.55543 -0.0239953 0.0166732 0 -0 0 
2 1 0.0714215 4.47841 -0.0197673 0 -0 0 
3 1 4.89883 -0.163736 0.0027759 0 -0 0 
4 2 -5 0 0 2 0 0 
5 2 0 5 0 0 2 0 
6 3 5 0 0 0 0 0 
ITEM: TIMESTEP
11322
ITEM: NUMBER OF ATOMS
6
ITEM: BOX BOUNDS pp pp ff
-1.0000000000000000e+01 1.0000000000000000e+01
-1.0000000000000000e+01 1.0000000000000000e+01
-2.0499999999999998e+00 2.0499999999999998e+00
ITEM: ATOMS id type x y z mux muy muz 
1 1 -4.58684 -0.0127113 0.0369251 0 0 0 
2 1 0.0534085 4.54065 0.045601 0 0 0 
3 1 4.80003 -0.0574358 0.0110076 0 0 0 
4 2 -5 0 0 2 0 0 
5 2 0 5 0 0 2 0 
6 3 5 0 0 0 0 0 
ITEM: TIMESTEP
11655
ITEM: NUMBER OF ATOMS
6
ITEM: BOX BOUNDS pp pp ff
-1.0000000000000000e+01 1.0000000000000000e+01
-1.0000000000000000e+01 1.0000000000000000e+01
-2.0499999999999998e+00 2.0499999999999998e+00
ITEM: ATOMS id type x y z mux muy muz 
1 1 -4.73314 -0.053122 -0.0179945 -0 -0 0 
2 1 -0.0175097 4.55445 -0.00405459 -0 -0 0 
3 1 4.76238 -0.0879244 0.0229697 -0 -0 0 
4 2 -5 0 0 2 0 0 
5 2 0 5 0 0 2 0 
6 3 5 0 0 0 0 0 
ITEM: TIMESTEP
11988
ITEM: NUMBER OF ATOMS
6
ITEM: BOX BOUNDS pp pp ff
-1.0000000000000000e+01 1.0000000000000000e+01
-1.0000000000000000e+01 1.0000000000000000e+01
-2.0499999999999998e+00 2.0499999999999998e+00
ITEM: ATOMS id type x y z mux muy muz 
1 1 -4.71126 -0.0448536 0.00403058 0 -0 0 
2 1 -0.119722 4.49959 0.021894 0 -0 0 
3 1 4.82173 -0.119582 -0.00567957 0 -0 0 
4 2 -5 0 0 2 0 0 
5 2 0 5 0 0 2 0 
6 3 5 0 0 0 0 0 
ITEM: TIMESTEP
12321
ITEM: NUMBER OF ATOMS
6
ITEM: BOX BOUNDS pp pp ff
-1.0000000000000000e+01 1.0000000000000000e+01
-1.0000000000000000e+01 1.0000000000000000e+01
-2.0499999999999998e+00 2.0499999999999998e+00
ITEM: ATOMS id type x y z mux muy muz 
1 1 -4.82488 0.0558659 -0.0534359 0 0 0 
2 1 -0.0793591 4.52714 -0.0403237 0 0 0 
3 1 4.82752 -0.114552 0.0218374 0 0 0 
4 2 -5 0 0 2 0 0 
5 2 0 5 0 0 2 0 
6 3 5 0 0 0 0 0 
ITEM: TIMESTEP
12654
ITEM: NUMBER OF ATOMS
6
ITEM: BOX BOUNDS pp pp ff
-1.0000000000000000e+01 1.0000000000000000e+01
-1.0000000000000000e+01 1.0000000000000000e+01
-2.0499999999999998e+00 2.0499999999999998e+00
ITEM: ATOMS id type x y z mux muy muz 
1 1 -4.9489 0.0521254 -0.0444928 -0 -0 0 
2 1 -0.112263 4.52774 0.0537232 -0 -0 0 
3 1 4.77995 -0.150635 0.027252 -0 -0 0 
4 2 -5 0 0 2 0 0 
5 2 0 5 0 0 2 0 
6 3 5 0 0 0 0 0 
ITEM: TIMESTEP
12987
ITEM: NUMBER OF ATOMS
6
ITEM: BOX BOUNDS pp pp ff
-1.0000000000000000e+01 1.0000000000000000e+01
-1.0000000000000000e+01 1.0000000000000000e+01
-2.0499999999999998e+00 2.0499999999999998e+00
ITEM: ATOMS id type x y z mux muy muz 
1 1 -4.98934 0.0501372 -0.0455475 0 -0 0 
2 1 -0.173571 4.6259 -0.00633054 0 -0 0 
3 1 4.85429 -0.146703 0.0227552 0 -0 0 
4 2 -5 0 0 2 0 0 
5 2 0 5 0 0 2 0 
6 3 5 0 0 0 0 0 
ITEM: TIMESTEP
13320
ITEM: NUMBER OF ATOMS
6
ITEM: BOX BOUNDS pp pp ff
-1.0000000000000000e+01 1.0000000000000000e+01
-1.0000000000000000e+01 1.0000000000000000e+01
-2.0499999999999998e+00 2.0499999999999998e+00
ITEM: ATOMS id type x y z mux muy muz 
1 1 -4.861 0.0882207 -0.01654 0 0 0 
2 1 -0.117928 4.62947 0.0355908 0 0 0 
3 1 4.92588 -0.136152 0.0492408 0 0 0 
4 2 -5 0 0 2 0 0 
5 2 0 5 0 0 2 0 
6 3 5 0 0 0 0 0 
ITEM: TIMESTEP
13653
ITEM: NUMBER OF ATOMS
6
ITEM: BOX BOUNDS pp pp ff
-1.0000000000000000e+01 1.0000000000000000e+01
-1.0000000000000000e+01 1.0000000000000000e+01
-2.0499999999999998e+00 2.0499999999999998e+00
ITEM: ATOMS id type x y z mux muy muz 
1 1 -4.87308 0.13872 0.00862362 -0 -0 0 
2 1 -0.158339 4.58676 0.0236689 -0 -0 0 
3 1 5.03311 -0.0961127 0.0374073 -0 -0 0 
4 2 -5 0 0 2 0 0 
5 2 0 5 0 0 2 0 
6 3 5 0 0 0 0 0 
ITEM: TIMESTEP
13986
ITEM: NUMBER OF ATOMS
6
ITEM: BOX BOUNDS pp pp ff
-1.0000000000000000e+01 1.0000000000000000e+01
-1.0000000000000000e+01 1.0000000000000000e+01
-2.0499999999999998e+00 2.0499999999999998e+00
ITEM: ATOMS id type x y z mux muy muz 
1 1 -5.01865 0.113165 -0.0170529 0 -0 0 
2 1 -0.187436 4.43129 -0.0249257 0 -0 0 
3 1 4.93089 -0.0676806 -0.0392717 0 -0 0 
4 2 -5 0 0 2 0 0 
5 2 0 5 0 0 2 0 
6 3 5 0 0 0 0 0 
ITEM: TIMESTEP
14319
ITEM: NUMBER OF ATOMS
6
ITEM: BOX BOUNDS pp pp ff
-1.0000000000000000e+01 1.0000000000000000e+01
-1.0000000000000000e+01 1.0000000000000000e+01
-2.0499999999999998e+00 2.0499999999999998e+00
ITEM: ATOMS id type x y z mux muy muz 
1 1 -4.96833 -0.0857107 -0.00796146 0 0 0 
2 1 -0.0948416 4.39768 -0.0348031 0 0 0 
3 1 4.98081 -0.0622629 0.0417537 0 0 0 
4 2 -5 0 0 2 0 0 
5 2 0 5 0 0 2 0 
6 3 5 0 0 0 0 0 
ITEM: TIMESTEP
14652
ITEM: NUMBER OF ATOMS
6
ITEM: BOX BOUNDS pp pp ff
-1.0000000000000000e+01 1.0000000000000000e+01
-1.0000000000000000e+01 1.0000000000000000e+01
-2.0499999999999998e+00 2.0499999999999998e+00
ITEM: ATOMS id type x y z mux muy muz 
1 1 -5.0184 -0.0850016 -0.0322545 -0 -0 0 
2 1 -0.0195634 4.33052 0.0153628 -0 -0 0 
3 1 5.0187 -0.0107042 0.0524469 -0 -0 0 
4 2 -5 0 0 2 0 0 
5 2 0 5 0 0 2 0 
6 3 5 0 0 0 0 0 
ITEM: TIMESTEP
14985
ITEM: NUMBER OF ATOMS
6
ITEM: BOX BOUNDS pp pp ff
-1.0000000000000000e+01 1.0000000000000000e+01
-1.0000000000000000e+01 1.0000000000000000e+01
-2.0499999999999998e+00 2.0499999999999998e+00
ITEM: ATOMS id type x y z mux muy muz 
1 1 -4.97775 -0.0715627 -0.0596874 0 -0 0 
2 1 -0.0924796 4.18234 0.00528626 0 -0 0 
3 1 4.92179 -0.109078 -0.0279835 0 -0 0 
4 2 -5 0 0 2 0 0 
5 2 0 5 0 0 2 0 
6 3 5 0 0 0 0 0 
ITEM: TIMESTEP
15318
ITEM: NUMBER OF ATOMS
6
ITEM: BOX BOUNDS pp pp ff
-1.0000000000000000e+01 1.0000000000000000e+01
-1.0000000000000000e+01 1.0000000000000000e+01
-2.0499999999999998e+00 2.0499999999999998e+00
ITEM: ATOMS id type x y z mux muy muz 
1 1 -4.88014 -0.0364197 -0.055077 0 0 0 
2 1 -0.130857 4.10178 -0.00515591 0 0 0 
3 1 4.87439 -0.0128263 0.0473357 0 0 0 
4 2 -5 0 0 2 0 0 
5 2 0 5 0 0 2 0 
6 3 5 0 0 0 0 0 
ITEM: TIMESTEP
15651
ITEM: NUMBER OF ATOMS
6
ITEM: BOX BOUNDS pp pp ff
-1.0000000000000000e+01 1.0000000000000000e+01
-1.0000000000000000e+01 1.0000000000000000e+01
-2.0499999999999998e+00 2.0499999999999998e+00
ITEM: ATOMS id type x y z mux muy muz 
1 1 -4.9865 -0.099397 -0.0017683 -0 -0 0 
2 1 -0.0935546 4.06844 -0.0315443 -0 -0 0 
3 1 4.91431 0.00674127 -0.0567268 -0 -0 0 
4 2 -5 0 0 2 0 0 
5 2 0 5 0 0 2 0 
6 3 5 0 0 0 0 0 
ITEM: TIMESTEP
15984
ITEM: NUMBER OF ATOMS
6
ITEM: BOX BOUNDS pp pp ff
-1.0000000000000000e+01 1.0000000000000000e+01
-1.0000000000000000e+01 1.0000000000000000e+01
-2.0499999999999998e+00 2.0499999999999998e+00
ITEM: ATOMS id type x y z mux muy muz 
1 1 -5.03923 -0.143749 -0.0537986 0 -0 0 
2 1 -0.0682939 4.10167 0.0440361 0 -0 0 
3 1 4.93801 0.0283665 0.0370014 0 -0 0 
4 2 -5 0 0 2 0 0 
5 2 0 5 0 0 2 0 
6 3 5 0 0 0 0 0 
ITEM: TIMESTEP
16317
ITEM: NUMBER OF ATOMS
6
ITEM: BOX BOUNDS pp pp ff
-1.0000000000000000e+01 1.0000000000000000e+01
-1.0000000000000000e+01 1.0000000000000000e+01
-2.0499999999999998e+00 2.0499999999999998e+00
ITEM: ATOMS id type x y z mux muy muz 
1 1 -5.02834 -0.0650441 -0.0465261 0 0 0 
2 1 0.0558034 4.26703 -0.051139 0 0 0 
3 1 5.03754 -0.0164072 0.0227353 0 0 0 
4 2 -5 0 0 2 0 0 
5 2 0 5 0 0 2 0 
6 3 5 0 0 0 0 0 
ITEM: TIMESTEP
16650
ITEM: NUMBER OF ATOMS
6
ITEM: BOX BOUNDS pp pp ff
-1.0000000000000000e+01 1.0000000000000000e+01
-1.0000000000000000e+01 1.0000000000000000e+01
-2.0499999999999998e+00 2.0499999999999998e+00
ITEM: ATOMS id type x y z mux muy muz 
1 1 -5.0767 0.0157971 0.0301519 -0 0 0 
2 1 0.0555706 4.2804 0.0150395 -0 0 0 
3 1 5.11853 -0.112239 -0.0184812 -0 0 0 
4 2 -5 0 0 2 0 0 
5 2 0 5 0 0 2 0 
6 3 5 0 0 0 0 0 
ITEM: TIMESTEP
16983
ITEM: NUMBER OF ATOMS
6
ITEM: BOX BOUNDS pp pp ff
-1.0000000000000000e+01 1.0000000000000000e+01
-1.0000000000000000e+01 1.0000000000000000e+01
-2.0499999999999998e+00 2.0499999999999998e+00
ITEM: ATOMS id type x y z mux muy muz 
1 1 -5.0224 0.0253382 -0.0324355 0 -0 0 
2 1 -0.0713288 4.35678 0.0485928 0 -0 0 
3 1 5.06746 -0.13197 -0.00286965 0 -0 0 
4 2 -5 0 0 2 0 0 
5 2 0 5 0 0 2 0 
6 3 5 0 0 0 0 0 
ITEM: TIMESTEP
17316
ITEM: NUMBER OF ATOMS
6
ITEM: BOX BOUNDS pp pp ff
-1.0000000000000000e+01 1.0000000000000000e+01
-1.0000000000000000e+01 1.0000000000000000e+01
-2.0499999999999998e+00 2.0499999999999998e+00
ITEM: ATOMS id type x y z mux muy muz 
1 1 -4.97232 0.140477 0.0090462 0 0 0 
2 1 -0.123042 4.38562 -0.0451761 0 0 0 
3 1 5.06122 -0.12455 -0.0229153 0 0 0 
4 2 -5 0 0 2 0 0 
5 2 0 5 0 0 2 0 
6 3 5 0 0 0 0 0 
ITEM: TIMESTEP
17649
ITEM: NUMBER OF ATOMS
6
ITEM: BOX BOUNDS pp pp ff
-1.0000000000000000e+01 1.0000000000000000e+01
-1.0000000000000000e+01 1.0000000000000000e+01
-2.0499999999999998e+00 2.0499999999999998e+00
ITEM: ATOMS id type x y z mux muy muz 
1 1 -4.88866 0.066443 0.0290254 -0 0 0 
2 1 -0.0914031 4.28522 -0.0337401 -0 0 0 
3 1 5.10495 -0.050034 0.0285164 -0 0 0 
4 2 -5 0 0 2 0 0 
5 2 0 5 0 0 2 0 
6 3 5 0 0 0 0 0 
ITEM: TIMESTEP
17982
ITEM: NUMBER OF ATOMS
6
ITEM: BOX BOUNDS pp pp ff
-1.0000000000000000e+01 1.0000000000000000e+01
-1.0000000000000000e+01 1.0000000000000000e+01
-2.0499999999999998e+00 2.0499999999999998e+00
ITEM: ATOMS id type x y z mux muy muz 
1 1 -4.9688 -0.0770501 -0.0417029 0 -0 0 
2 1 0.0376121 4.22586 -0.00107095 0 -0 0 
3 1 5.00737 -0.0371671 0.0251137 0 -0 0 
4 2 -5 0 0 2 0 0 
5 2 0 5 0 0 2 0 
6 3 5 0 0 0 0 0 
ITEM: TIMESTEP
18315
ITEM: NUMBER OF ATOMS
6
ITEM: BOX BOUNDS pp pp ff
-1.0000000000000000e+01 1.0000000000000000e+01
-1.0000000000000000e+01 1.0000000000000000e+01
-2.0499999999999998e+00 2.0499999999999998e+00
ITEM: ATOMS id type x y z mux muy muz 
1 1 -5.01504 -0.0441617 -0.00107431 0 0 0 
2 1 0.0581025 4.29765 -0.0231497 0 0 0 
3 1 5.02877 -0.0278772 -0.000291121 0 0 0 
4 2 -5 0 0 2 0 0 
5 2 0 5 0 0 2 0 
6 3 5 0 0 0 0 0 
ITEM: TIMESTEP
18648
ITEM: NUMBER OF ATOMS
6
ITEM: BOX BOUNDS pp pp ff
-1.0000000000000000e+01 1.0000000000000000e+01
-1.0000000000000000e+01 1.0000000000000000e+01
-2.0499999999999998e+00 2.0499999999999998e+00
ITEM: ATOMS id type x y z mux muy muz 
1 1 -4.93235 0.0531443 0.00146384 -0 0 0 
2 1 -0.0119932 4.15201 -0.0264855 -0 0 0 
3 1 4.91453 -0.0134356 -0.0359941 -0 0 0 
4 2 -5 0 0 2 0 0 
5 2 0 5 0 0 2 0 
6 3 5 0 0 0 0 0 
ITEM: TIMESTEP
18981
ITEM: NUMBER OF ATOMS
6
ITEM: BOX BOUNDS pp pp ff
-1.0000000000000000e+01 1.0000000000000000e+01
-1.0000000000000000e+01 1.0000000000000000e+01
-2.0499999999999998e+00 2.0499999999999998e+00
ITEM: ATOMS id type x y z mux muy muz 
1 1 -4.90434 0.0455815 -0.0523322 0 -0 0 
2 1 0.091101 4.06807 0.0144593 0 -0 0 
3 1 5.02495 0.0778793 -0.0323518 0 -0 0 
4 2 -5 0 0 2 0 0 
5 2 0 5 0 0 2 0 
6 3 5 0 0 0 0 0 
ITEM: TIMESTEP
19314
ITEM: NUMBER OF ATOMS
6
ITEM: BOX BOUNDS pp pp ff
-1.0000000000000000e+01 1.0000000000000000e+01
-1.0000000000000000e+01 1.0000000000000000e+01
-2.0499999999999998e+00 2.0499999999999998e+00
ITEM: ATOMS id type x y z mux muy muz 
1 1 -4.88523 0.0304759 -0.0412134 0 0 0 
2 1 0.0646649 4.05309 0.00648192 0 0 0 
3 1 4.9814 -0.0613766 0.0107517 0 0 0 
4 2 -5 0 0 2 0 0 
5 2 0 5 0 0 2 0 
6 3 5 0 0 0 0 0 
ITEM: TIMESTEP
19647
ITEM: NUMBER OF ATOMS
6
ITEM: BOX BOUNDS pp pp ff
-1.0000000000000000e+01 1.0000000000000000e+01
-1.0000000000000000e+01 1.0000000000000000e+01
-2.0499999999999998e+00 2.0499999999999998e+00
ITEM: ATOMS id type x y z mux muy muz 
1 1 -4.96056 0.0480643 0.0267047 -0 0 0 
2 1 -0.000239563 4.097 -0.0019337 -0 0 0 
3 1 4.96011 -0.106233 0.0134467 -0 0 0 
4 2 -5 0 0 2 0 0 
5 2 0 5 0 0 2 0 
6 3 5 0 0 0 0 0 
ITEM: TIMESTEP
19980
ITEM: NUMBER OF ATOMS
6
ITEM: BOX BOUNDS pp pp ff
-1.0000000000000000e+01 1.0000000000000000e+01
-1.0000000000000000e+01 1.0000000000000000e+01
-2.0499999999999998e+00 2.0499999999999998e+00
ITEM: ATOMS id type x y z mux muy muz 
1 1 -5.02503 0.10032 -0.0152847 0 -0 0 
2 1 0.0332634 4.08455 -0.0499458 0 -0 0 
3 1 4.94796 -0.100834 -0.0168357 0 -0 0 
4 2 -5 0 0 2 0 0 
5 2 0 5 0 0 2 0 
6 3 5 0 0 0 0 0 
ITEM: TIMESTEP
20313
ITEM: NUMBER OF ATOMS
6
ITEM: BOX BOUNDS pp pp ff
-1.0000000000000000e+01 1.0000000000000000e+01
-1.0000000000000000e+01 1.0000000000000000e+01
-2.0499999999999998e+00 2.0499999999999998e+00
ITEM: ATOMS id type x y z mux muy muz 
1 1 -5.04508 0.112605 0.0191275 0 0 0 
2 1 0.0174129 4.13902 -0.0293446 0 0 0 
3 1 4.94515 0.026017 -0.0452496 0 0 0 
4 2 -5 0 0 2 0 0 
5 2 0 5 0 0 2 0 
6 3 5 0 0 0 0 0 
ITEM: TIMESTEP
20646
ITEM: NUMBER OF ATOMS
6
ITEM: BOX BOUNDS pp pp ff
-1.0000000000000000e+01 1.0000000000000000e+01
-1.0000000000000000e+01 1.0000000000000000e+01
-2.0499999999999998e+00 2.0499999999999998e+00
ITEM: ATOMS id type x y z mux muy muz 
1 1 -4.98935 0.107225 0.0447195 -0 0 0 
2 1 -0.0285686 4.01608 0.00517398 -0 0 0 
3 1 4.94224 -0.0280412 -0.0511448 -0 0 0 
4 2 -5 0 0 2 0 0 
5 2 0 5 0 0 2 0 
6 3 5 0 0 0 0 0 
ITEM: TIMESTEP
20979
ITEM: NUMBER OF ATOMS
6
ITEM: BOX BOUNDS pp pp ff
-1.0000000000000000e+01 1.0000000000000000e+01
-1.0000000000000000e+01 1.0000000000000000e+01
-2.0499999999999998e+00 2.0499999999999998e+00
ITEM: ATOMS id type x y z mux muy muz 
1 1 -4.97545 0.162163 -0.033066 0 -0 0 
2 1 -0.0837591 3.98891 0.036275 0 -0 0 
3 1 5.00283 0.135211 0.00355131 0 -0 0 
4 2 -5 0 0 2 0 0 
5 2 0 5 0 0 2 0 
6 3 5 0 0 0 0 0 
ITEM: TIMESTEP
21312
ITEM: NUMBER OF ATOMS
6
ITEM: BOX BOUNDS pp pp ff
-1.0000000000000000e+01 1.0000000000000000e+01
-1.0000000000000000e+01 1.0000000000000000e+01
-2.0499999999999998e+00 2.0499999999999998e+00
ITEM: ATOMS id type x y z mux muy muz 
1 1 -4.89192 0.118874 -0.0481202 0 0 0 
2 1 -0.00171611 3.90131 0.0163003 0 0 0 
3 1 4.92093 0.0934578 -0.0462742 0 0 0 
4 2 -5 0 0 2 0 0 
5 2 0 5 0 0 2 0 
6 3 5 0 0 0 0 0 
ITEM: TIMESTEP
21645
ITEM: NUMBER OF ATOMS
6
ITEM: BOX BOUNDS pp pp ff
-1.0000000000000000e+01 1.0000000000000000e+01
-1.0000000000000000e+01 1.0000000000000000e+01
-2.0499999999999998e+00 2.0499999999999998e+00
ITEM: ATOMS id type x y z mux muy muz 
1 1 -4.9018 0.152836 -0.0156063 -0 0 0 
2 1 -0.0670074 3.96228 -0.0409755 -0 0 0 
3 1 4.88946 0.0299686 0.0188647 -0 0 0 
4 2 -5 0 0 2 0 0 
5 2 0 5 0 0 2 0 
6 3 5 0 0 0 0 0 
ITEM: TIMESTEP
21978
ITEM: NUMBER OF ATOMS
6
ITEM: BOX BOUNDS pp pp ff
-1.0000000000000000e+01 1.0000000000000000e+01
-1.0000000000000000e+01 1.0000000000000000e+01
-2.0499999999999998e+00 2.0499999999999998e+00
ITEM: ATOMS id type x y z mux muy muz 
1 1 -4.83539 0.0710673 0.0182268 0 -0 0 
2 1 -0.0413036 4.04101 0.0370317 0 -0 0 
3 1 5.04201 -0.0136828 0.0371875 0 -0 0 
4 2 -5 0 0 2 0 0 
5 2 0 5 0 0 2 0 
6 3 5 0 0 0 0 0 
ITEM: TIMESTEP
22311
ITEM: NUMBER OF ATOMS
6
ITEM: BOX BOUNDS pp pp ff
-1.0000000000000000e+01 1.0000000000000000e+01
-1.0000000000000000e+01 1.0000000000000000e+01
-2.0499999999999998e+00 2.0499999999999998e+00
ITEM: ATOMS id type x y z mux muy muz 
1 1 -4.79305 0.130183 0.0168747 0 0 0 
2 1 -0.0137842 4.17337 -0.0284241 0 0 0 
3 1 5.19441 0.0690792 0.0146805 0 0 0 
4 2 -5 0 0 2 0 0 
5 2 0 5 0 0 2 0 
6 3 5 0 0 0 0 0 
ITEM: TIMESTEP
22644
ITEM: NUMBER OF ATOMS
6
ITEM: BOX BOUNDS pp pp ff
-1.0000000000000000e+01 1.0000000000000000e+01
-1.0000000000000000e+01 1.0000000000000000e+01
-2.0499999999999998e+00 2.0499999999999998e+00
ITEM: ATOMS id type x y z mux muy muz 
1 1 -4.57797 0.106669 -0.0425469 -0 0 0 
2 1 -0.0276227 4.30328 -0.00605904 -0 0 0 
3 1 5.08852 -0.0279045 0.00733314 -0 0 0 
4 2 -5 0 0 2 0 0 
5 2 0 5 0 0 2 0 
6 3 5 0 0 0 0 0 
ITEM: TIMESTEP
22977
ITEM: NUMBER OF ATOMS
6
ITEM: BOX BOUNDS pp pp ff
-1.0000000000000000e+01 1.0000000000000000e+01
-1.0000000000000000e+01 1.0000000000000000e+01
-2.0499999999999998e+00 2.0499999999999998e+00
ITEM: ATOMS id type x y z mux muy muz 
1 1 -4.62633 0.0639804 -0.00773175 0 -0 0 
2 1 0.0303054 4.25683 0.020626 0 -0 0 
3 1 5.15289 -0.0126153 -0.0476559 0 -0 0 
4 2 -5 0 0 2 0 0 
5 2 0 5 0 0 2 0 
6 3 5 0 0 0 0 0 
ITEM: TIMESTEP
23310
ITEM: NUMBER OF ATOMS
6
ITEM: BOX BOUNDS pp pp ff
-1.0000000000000000e+01 1.0000000000000000e+01
-1.0000000000000000e+01 1.0000000000000000e+01
-2.0499999999999998e+00 2.0499999999999998e+00
ITEM: ATOMS id type x y z mux muy muz 