ITEM: TIMESTEP
0
ITEM: NUMBER OF ATOMS
6
ITEM: BOX BOUNDS pp pp ff
-1.0000000000000000e+01 1.0000000000000000e+01
-1.0000000000000000e+01 1.0000000000000000e+01
-2.0499999999999998e+00 2.0499999999999998e+00
ITEM: ATOMS id type x y z mux muy muz 
1 1 -5 0 0 0 0 0 
2 1 0 5 0 0 0 0 
3 1 5 0 0 0 0 0 
4 2 -5 0 0 2 0 0 
5 2 0 5 0 0 2 0 
6 3 5 0 0 0 0 0 
ITEM: TIMESTEP
333
ITEM: NUMBER OF ATOMS
6
ITEM: BOX BOUNDS pp pp ff
-1.0000000000000000e+01 1.0000000000000000e+01
-1.0000000000000000e+01 1.0000000000000000e+01
-2.0499999999999998e+00 2.0499999999999998e+00
ITEM: ATOMS id type x y z mux muy muz 
1 1 -4.97877 -0.0106334 -0.0541216 -0 0 0 
2 1 0.0516191 4.95813 0.0314253 -0 0 0 
3 1 5.07643 -0.0562556 -0.0513149 -0 0 0 
4 2 -5 0 0 2 0 0 
5 2 0 5 0 0 2 0 
6 3 5 0 0 0 0 0 
ITEM: TIMESTEP
666
ITEM: NUMBER OF ATOMS
6
ITEM: BOX BOUNDS pp pp ff
-1.0000000000000000e+01 1.0000000000000000e+01
-1.0000000000000000e+01 1.0000000000000000e+01
-2.0499999999999998e+00 2.0499999999999998e+00
ITEM: ATOMS id type x y z mux muy muz 
1 1 -4.89319 0.040041 0.0329935 -0 -0 0 
2 1 0.0299845 4.99119 -0.0273891 -0 -0 0 
3 1 5.07791 -0.136089 0.00991784 -0 -0 0 
4 2 -5 0 0 2 0 0 
5 2 0 5 0 0 2 0 
6 3 5 0 0 0 0 0 
ITEM: TIMESTEP
999
ITEM: NUMBER OF ATOMS
6
ITEM: BOX BOUNDS pp pp ff
-1.0000000000000000e+01 1.0000000000000000e+01
-1.0000000000000000e+01 1.0000000000000000e+01
-2.0499999999999998e+00 2.0499999999999998e+00
ITEM: ATOMS id type x y z mux muy muz 
1 1 -4.80374 0.0353714 0.0270133 0 -0 0 
2 1 0.108409 5.00256 -0.0567866 0 -0 0 
3 1 5.051 -0.177025 0.0233476 0 -0 0 
4 2 -5 0 0 2 0 0 
5 2 0 5 0 0 2 0 
6 3 5 0 0 0 0 0 
ITEM: TIMESTEP
1332
ITEM: NUMBER OF ATOMS
6
ITEM: BOX BOUNDS pp pp ff
-1.0000000000000000e+01 1.0000000000000000e+01
-1.0000000000000000e+01 1.0000000000000000e+01
-2.0499999999999998e+00 2.0499999999999998e+00
ITEM: ATOMS id type x y z mux muy muz 
1 1 -4.85987 0.0368514 0.055652 -0 0 0 
2 1 0.143402 5.00478 -0.037644 -0 0 0 
3 1 5.04904 -0.0527462 -0.00854327 -0 0 0 
4 2 -5 0 0 2 0 0 
5 2 0 5 0 0 2 0 
6 3 5 0 0 0 0 0 
ITEM: TIMESTEP
1665
ITEM: NUMBER OF ATOMS
6
ITEM: BOX BOUNDS pp pp ff
-1.0000000000000000e+01 1.0000000000000000e+01
-1.0000000000000000e+01 1.0000000000000000e+01
-2.0499999999999998e+00 2.0499999999999998e+00
ITEM: ATOMS id type x y z mux muy muz 
1 1 -4.9432 0.109615 0.028696 -0 -0 0 
2 1 0.104785 5.05382 -0.0438239 -0 -0 0 
3 1 4.97682 -0.105384 -0.0456976 -0 -0 0 
4 2 -5 0 0 2 0 0 
5 2 0 5 0 0 2 0 
6 3 5 0 0 0 0 0 
ITEM: TIMESTEP
1998
ITEM: NUMBER OF ATOMS
6
ITEM: BOX BOUNDS pp pp ff
-1.0000000000000000e+01 1.0000000000000000e+01
-1.0000000000000000e+01 1.0000000000000000e+01
-2.0499999999999998e+00 2.0499999999999998e+00
ITEM: ATOMS id type x y z mux muy muz 
1 1 -4.96967 0.165626 -0.0503547 0 -0 0 
2 1 0.124097 5.06307 -0.022936 0 -0 0 
3 1 5.01699 -0.0239315 -0.0402448 0 -0 0 
4 2 -5 0 0 2 0 0 
5 2 0 5 0 0 2 0 
6 3 5 0 0 0 0 0 
ITEM: TIMESTEP
2331
ITEM: NUMBER OF ATOMS
6
ITEM: BOX BOUNDS pp pp ff
-1.0000000000000000e+01 1.0000000000000000e+01
-1.0000000000000000e+01 1.0000000000000000e+01
-2.0499999999999998e+00 2.0499999999999998e+00
ITEM: ATOMS id type x y z mux muy muz 
1 1 -4.93329 0.101253 -0.00515741 -0 0 0 
2 1 0.109867 5.1868 -0.0384738 -0 0 0 
3 1 5.05803 -0.121147 -0.0335887 -0 0 0 
4 2 -5 0 0 2 0 0 
5 2 0 5 0 0 2 0 
6 3 5 0 0 0 0 0 
ITEM: TIMESTEP
2664
ITEM: NUMBER OF ATOMS
6
ITEM: BOX BOUNDS pp pp ff
-1.0000000000000000e+01 1.0000000000000000e+01
-1.0000000000000000e+01 1.0000000000000000e+01
-2.0499999999999998e+00 2.0499999999999998e+00
ITEM: ATOMS id type x y z mux muy muz 
1 1 -4.99481 -0.0351392 0.0104426 -0 -0 0 
2 1 0.147849 5.11681 -0.0284937 -0 -0 0 
3 1 5.12752 -0.165566 0.0330648 -0 -0 0 
4 2 -5 0 0 2 0 0 
5 2 0 5 0 0 2 0 
6 3 5 0 0 0 0 0 
ITEM: TIMESTEP
2997
ITEM: NUMBER OF ATOMS
6
ITEM: BOX BOUNDS pp pp ff
-1.0000000000000000e+01 1.0000000000000000e+01
-1.0000000000000000e+01 1.0000000000000000e+01
-2.0499999999999998e+00 2.0499999999999998e+00
ITEM: ATOMS id type x y z mux muy muz 
1 1 -4.97153 -0.000904665 0.0491187 0 -0 0 
2 1 0.0765325 5.06091 -0.0148507 0 -0 0 
3 1 5.12222 -0.219113 0.0376047 0 -0 0 
4 2 -5 0 0 2 0 0 
5 2 0 5 0 0 2 0 
6 3 5 0 0 0 0 0 
ITEM: TIMESTEP
3330
ITEM: NUMBER OF ATOMS
6
ITEM: BOX BOUNDS pp pp ff
-1.0000000000000000e+01 1.0000000000000000e+01
-1.0000000000000000e+01 1.0000000000000000e+01
-2.0499999999999998e+00 2.0499999999999998e+00
ITEM: ATOMS id type x y z mux muy muz 
1 1 -4.96309 -0.0227567 0.0400554 -0 0 0 
2 1 0.113765 5.08445 -0.03645 -0 0 0 
3 1 5.07469 -0.275246 -0.0339126 -0 0 0 
4 2 -5 0 0 2 0 0 
5 2 0 5 0 0 2 0 
6 3 5 0 0 0 0 0 
ITEM: TIMESTEP
3663
ITEM: NUMBER OF ATOMS
6
ITEM: BOX BOUNDS pp pp ff
-1.0000000000000000e+01 1.0000000000000000e+01
-1.0000000000000000e+01 1.0000000000000000e+01
-2.0499999999999998e+00 2.0499999999999998e+00
ITEM: ATOMS id type x y z mux muy muz 
1 1 -4.93139 -0.0369569 0.0188112 -0 -0 0 
2 1 0.0804354 5.14229 -0.00276602 -0 -0 0 
3 1 5.10125 -0.211527 0.0118249 -0 -0 0 
4 2 -5 0 0 2 0 0 
5 2 0 5 0 0 2 0 
6 3 5 0 0 0 0 0 
ITEM: TIMESTEP
3996
ITEM: NUMBER OF ATOMS
6
ITEM: BOX BOUNDS pp pp ff
-1.0000000000000000e+01 1.0000000000000000e+01
-1.0000000000000000e+01 1.0000000000000000e+01
-2.0499999999999998e+00 2.0499999999999998e+00
ITEM: ATOMS id type x y z mux muy muz 
1 1 -4.90534 -0.117461 0.0484945 0 -0 0 
2 1 0.0957551 5.14706 0.0310771 0 -0 0 
3 1 5.13603 -0.22607 -0.0470158 0 -0 0 
4 2 -5 0 0 2 0 0 
5 2 0 5 0 0 2 0 
6 3 5 0 0 0 0 0 
ITEM: TIMESTEP
4329
ITEM: NUMBER OF ATOMS
6
ITEM: BOX BOUNDS pp pp ff
-1.0000000000000000e+01 1.0000000000000000e+01
-1.0000000000000000e+01 1.0000000000000000e+01
-2.0499999999999998e+00 2.0499999999999998e+00
ITEM: ATOMS id type x y z mux muy muz 
1 1 -4.87383 -0.114563 0.0530731 -0 0 0 
2 1 0.0408135 5.03468 -0.00806966 -0 0 0 
3 1 5.13568 -0.124576 -0.00251226 -0 0 0 
4 2 -5 0 0 2 0 0 
5 2 0 5 0 0 2 0 
6 3 5 0 0 0 0 0 
ITEM: TIMESTEP
4662
ITEM: NUMBER OF ATOMS
6
ITEM: BOX BOUNDS pp pp ff
-1.0000000000000000e+01 1.0000000000000000e+01
-1.0000000000000000e+01 1.0000000000000000e+01
-2.0499999999999998e+00 2.0499999999999998e+00
ITEM: ATOMS id type x y z mux muy muz 
1 1 -5.01059 -0.216767 0.00174717 -0 -0 0 
2 1 0.0175202 5.05277 0.0496308 -0 -0 0 
3 1 5.18704 -0.0564155 -0.0114958 -0 -0 0 
4 2 -5 0 0 2 0 0 
5 2 0 5 0 0 2 0 
6 3 5 0 0 0 0 0 
ITEM: TIMESTEP
4995
ITEM: NUMBER OF ATOMS
6
ITEM: BOX BOUNDS pp pp ff
-1.0000000000000000e+01 1.0000000000000000e+01
-1.0000000000000000e+01 1.0000000000000000e+01
-2.0499999999999998e+00 2.0499999999999998e+00
ITEM: ATOMS id type x y z mux muy muz 
1 1 -4.98655 -0.15637 0.0127434 0 -0 0 
2 1 -0.010995 5.08514 -0.0372845 0 -0 0 
3 1 5.10293 -0.0294703 0.0391692 0 -0 0 
4 2 -5 0 0 2 0 0 
5 2 0 5 0 0 2 0 
6 3 5 0 0 0 0 0 
ITEM: TIMESTEP
5328
ITEM: NUMBER OF ATOMS
6
ITEM: BOX BOUNDS pp pp ff
-1.0000000000000000e+01 1.0000000000000000e+01
-1.0000000000000000e+01 1.0000000000000000e+01
-2.0499999999999998e+00 2.0499999999999998e+00
ITEM: ATOMS id type x y z mux muy muz 
1 1 -4.99203 -0.0551408 0.0414488 -0 0 0 
2 1 0.0829039 5.21414 -0.0266562 -0 0 0 
3 1 5.02003 0.039067 0.0361215 -0 0 0 
4 2 -5 0 0 2 0 0 
5 2 0 5 0 0 2 0 
6 3 5 0 0 0 0 0 
ITEM: TIMESTEP
5661
ITEM: NUMBER OF ATOMS
6
ITEM: BOX BOUNDS pp pp ff
-1.0000000000000000e+01 1.0000000000000000e+01
-1.0000000000000000e+01 1.0000000000000000e+01
-2.0499999999999998e+00 2.0499999999999998e+00
ITEM: ATOMS id type x y z mux muy muz 
1 1 -4.92859 0.0910594 0.0128087 -0 -0 0 
2 1 0.0879851 5.24484 0.0272188 -0 -0 0 
3 1 4.97689 -0.0942278 0.0381614 -0 -0 0 
4 2 -5 0 0 2 0 0 
5 2 0 5 0 0 2 0 
6 3 5 0 0 0 0 0 
ITEM: TIMESTEP
5994
ITEM: NUMBER OF ATOMS
6
ITEM: BOX BOUNDS pp pp ff
-1.0000000000000000e+01 1.0000000000000000e+01
-1.0000000000000000e+01 1.0000000000000000e+01
-2.0499999999999998e+00 2.0499999999999998e+00
ITEM: ATOMS id type x y z mux muy muz 
1 1 -4.86868 -0.0147281 0.0366263 0 -0 0 
2 1 0.0517572 5.2254 0.0405928 0 -0 0 
3 1 4.91624 -0.0583735 -0.00663462 0 -0 0 
4 2 -5 0 0 2 0 0 
5 2 0 5 0 0 2 0 
6 3 5 0 0 0 0 0 
ITEM: TIMESTEP
6327
ITEM: NUMBER OF ATOMS
6
ITEM: BOX BOUNDS pp pp ff
-1.0000000000000000e+01 1.0000000000000000e+01
-1.0000000000000000e+01 1.0000000000000000e+01
-2.0499999999999998e+00 2.0499999999999998e+00
ITEM: ATOMS id type x y z mux muy muz 
1 1 -4.71652 0.0517548 0.0269092 -0 0 0 
2 1 -0.035617 5.31918 0.031712 -0 0 0 
3 1 4.86076 -0.132716 0.0428772 -0 0 0 
4 2 -5 0 0 2 0 0 
5 2 0 5 0 0 2 0 
6 3 5 0 0 0 0 0 
ITEM: TIMESTEP
6660
ITEM: NUMBER OF ATOMS
6
ITEM: BOX BOUNDS pp pp ff
-1.0000000000000000e+01 1.0000000000000000e+01
-1.0000000000000000e+01 1.0000000000000000e+01
-2.0499999999999998e+00 2.0499999999999998e+00
ITEM: ATOMS id type x y z mux muy muz 
1 1 -4.63877 0.0508484 0.0431439 -0 -0 0 
2 1 -0.131164 5.20769 -0.0360091 -0 -0 0 
3 1 4.9239 -0.00537326 -0.00443841 -0 -0 0 
4 2 -5 0 0 2 0 0 
5 2 0 5 0 0 2 0 
6 3 5 0 0 0 0 0 
ITEM: TIMESTEP
6993
ITEM: NUMBER OF ATOMS
6
ITEM: BOX BOUNDS pp pp ff
-1.0000000000000000e+01 1.0000000000000000e+01
-1.0000000000000000e+01 1.0000000000000000e+01
-2.0499999999999998e+00 2.0499999999999998e+00
ITEM: ATOMS id type x y z mux muy muz 
1 1 -4.54025 0.0786565 -0.0366473 0 -0 0 
2 1 -0.139658 5.12668 0.00577466 0 -0 0 
3 1 4.85013 -0.000625407 0.0156742 0 -0 0 
4 2 -5 0 0 2 0 0 
5 2 0 5 0 0 2 0 
6 3 5 0 0 0 0 0 
ITEM: TIMESTEP
7326
ITEM: NUMBER OF ATOMS
6
ITEM: BOX BOUNDS pp pp ff
-1.0000000000000000e+01 1.0000000000000000e+01
-1.0000000000000000e+01 1.0000000000000000e+01
-2.0499999999999998e+00 2.0499999999999998e+00
ITEM: ATOMS id type x y z mux muy muz 
1 1 -4.3946 -0.0210665 -0.00603513 -0 0 0 
2 1 -0.0475183 5.04611 0.0508334 -0 0 0 
3 1 4.86907 -0.0731162 0.0590057 -0 0 0 
4 2 -5 0 0 2 0 0 
5 2 0 5 0 0 2 0 
6 3 5 0 0 0 0 0 
ITEM: TIMESTEP
7659
ITEM: NUMBER OF ATOMS
6
ITEM: BOX BOUNDS pp pp ff
-1.0000000000000000e+01 1.0000000000000000e+01
-1.0000000000000000e+01 1.0000000000000000e+01
-2.0499999999999998e+00 2.0499999999999998e+00
ITEM: ATOMS id type x y z mux muy muz 
1 1 -4.3277 -0.023568 0.00832202 -0 -0 0 
2 1 -0.0573608 5.06757 -0.0448651 -0 -0 0 
3 1 4.87837 -0.0293846 -0.000249974 -0 -0 0 
4 2 -5 0 0 2 0 0 
5 2 0 5 0 0 2 0 
6 3 5 0 0 0 0 0 
ITEM: TIMESTEP
7992
ITEM: NUMBER OF ATOMS
6
ITEM: BOX BOUNDS pp pp ff
-1.0000000000000000e+01 1.0000000000000000e+01
-1.0000000000000000e+01 1.0000000000000000e+01
-2.0499999999999998e+00 2.0499999999999998e+00
ITEM: ATOMS id type x y z mux muy muz 
1 1 -4.36256 -0.0408837 -0.0482192 0 -0 0 
2 1 0.0374588 5.07456 -0.0472586 0 -0 0 
3 1 4.93393 -0.0479633 0.0121827 0 -0 0 
4 2 -5 0 0 2 0 0 
5 2 0 5 0 0 2 0 
6 3 5 0 0 0 0 0 
ITEM: TIMESTEP
8325
ITEM: NUMBER OF ATOMS
6
ITEM: BOX BOUNDS pp pp ff
-1.0000000000000000e+01 1.0000000000000000e+01
-1.0000000000000000e+01 1.0000000000000000e+01
-2.0499999999999998e+00 2.0499999999999998e+00
ITEM: ATOMS id type x y z mux muy muz 
1 1 -4.40742 0.00756817 -0.0366305 0 0 0 
2 1 -0.0997479 5.15314 -0.0361214 0 0 0 
3 1 5.04094 0.0465414 0.0560642 0 0 0 
4 2 -5 0 0 2 0 0 
5 2 0 5 0 0 2 0 
6 3 5 0 0 0 0 0 
ITEM: TIMESTEP
8658
ITEM: NUMBER OF ATOMS
6
ITEM: BOX BOUNDS pp pp ff
-1.0000000000000000e+01 1.0000000000000000e+01
-1.0000000000000000e+01 1.0000000000000000e+01
-2.0499999999999998e+00 2.0499999999999998e+00
ITEM: ATOMS id type x y z mux muy muz 
1 1 -4.51969 0.032127 -0.0437822 -0 -0 0 
2 1 -0.119839 5.22711 -0.0160059 -0 -0 0 
3 1 4.94386 0.101996 0.0369532 -0 -0 0 
4 2 -5 0 0 2 0 0 
5 2 0 5 0 0 2 0 
6 3 5 0 0 0 0 0 
ITEM: TIMESTEP
8991
ITEM: NUMBER OF ATOMS
6
ITEM: BOX BOUNDS pp pp ff
-1.0000000000000000e+01 1.0000000000000000e+01
-1.0000000000000000e+01 1.0000000000000000e+01
-2.0499999999999998e+00 2.0499999999999998e+00
ITEM: ATOMS id type x y z mux muy muz 
1 1 -4.53674 -0.0299718 0.0378714 0 -0 0 
2 1 -0.0143347 5.16709 0.0348073 0 -0 0 
3 1 4.88923 0.176663 -0.0380553 0 -0 0 
4 2 -5 0 0 2 0 0 
5 2 0 5 0 0 2 0 
6 3 5 0 0 0 0 0 
ITEM: TIMESTEP
9324
ITEM: NUMBER OF ATOMS
6
ITEM: BOX BOUNDS pp pp ff
-1.0000000000000000e+01 1.0000000000000000e+01
-1.0000000000000000e+01 1.0000000000000000e+01
-2.0499999999999998e+00 2.0499999999999998e+00
ITEM: ATOMS id type x y z mux muy muz 
1 1 -4.64872 -0.0426942 -0.0505664 0 0 0 
2 1 -0.0329363 5.03514 -0.0403645 0 0 0 
3 1 4.87857 0.162683 -0.0232567 0 0 0 
4 2 -5 0 0 2 0 0 
5 2 0 5 0 0 2 0 
6 3 5 0 0 0 0 0 
ITEM: TIMESTEP
9657
ITEM: NUMBER OF ATOMS
6
ITEM: BOX BOUNDS pp pp ff
-1.0000000000000000e+01 1.0000000000000000e+01
-1.0000000000000000e+01 1.0000000000000000e+01
-2.0499999999999998e+00 2.0499999999999998e+00
ITEM: ATOMS id type x y z mux muy muz 
1 1 -4.67922 0.0654306 -0.0439245 -0 -0 0 
2 1 0.0369574 5.19639 0.0161729 -0 -0 0 
3 1 4.87261 0.109541 0.0466414 -0 -0 0 
4 2 -5 0 0 2 0 0 
5 2 0 5 0 0 2 0 
6 3 5 0 0 0 0 0 
ITEM: TIMESTEP
9990
ITEM: NUMBER OF ATOMS
6
ITEM: BOX BOUNDS pp pp ff
-1.0000000000000000e+01 1.0000000000000000e+01
-1.0000000000000000e+01 1.0000000000000000e+01
-2.0499999999999998e+00 2.0499999999999998e+00
ITEM: ATOMS id type x y z mux muy muz 
1 1 -4.57042 -0.0386542 0.0360738 0 -0 0 
2 1 0.0772435 5.18621 0.0143161 0 -0 0 
3 1 4.9228 0.127749 0.0530114 0 -0 0 
4 2 -5 0 0 2 0 0 
5 2 0 5 0 0 2 0 
6 3 5 0 0 0 0 0 
ITEM: TIMESTEP
10323
ITEM: NUMBER OF ATOMS
6
ITEM: BOX BOUNDS pp pp ff
-1.0000000000000000e+01 1.0000000000000000e+01
-1.0000000000000000e+01 1.0000000000000000e+01
-2.0499999999999998e+00 2.0499999999999998e+00
ITEM: ATOMS id type x y z mux muy muz 
1 1 -4.53616 -0.0648797 0.0485744 0 0 0 
2 1 -0.000576973 5.1396 0.00601929 0 0 0 
3 1 4.89415 0.0372243 0.0384523 0 0 0 
4 2 -5 0 0 2 0 0 
5 2 0 5 0 0 2 0 
6 3 5 0 0 0 0 0 
ITEM: TIMESTEP
10656
ITEM: NUMBER OF ATOMS
6
ITEM: BOX BOUNDS pp pp ff
-1.0000000000000000e+01 1.0000000000000000e+01
-1.0000000000000000e+01 1.0000000000000000e+01
-2.0499999999999998e+00 2.0499999999999998e+00
ITEM: ATOMS id type x y z mux muy muz 
1 1 -4.49572 -0.207411 0.0496701 -0 -0 0 
2 1 0.0135801 5.08407 -0.0413012 -0 -0 0 
3 1 4.76731 0.00609606 -0.0355748 -0 -0 0 
4 2 -5 0 0 2 0 0 
5 2 0 5 0 0 2 0 
6 3 5 0 0 0 0 0 
ITEM: TIMESTEP
10989
ITEM: NUMBER OF ATOMS
6
ITEM: BOX BOUNDS pp pp ff
-1.0000000000000000e+01 1.0000000000000000e+01
-1.0000000000000000e+01 1.0000000000000000e+01
-2.0499999999999998e+00 2.0499999999999998e+00
ITEM: ATOMS id type x y z mux muy muz 
1 1 -4.4509 -0.0892616 -0.026416 0 -0 0 
2 1 0.111363 5.0941 -0.0322482 0 -0 0 
3 1 4.81111 -0.0717673 -0.0536921 0 -0 0 
4 2 -5 0 0 2 0 0 
5 2 0 5 0 0 2 0 
6 3 5 0 0 0 0 0 
ITEM: TIMESTEP
11322
ITEM: NUMBER OF ATOMS
6
ITEM: BOX BOUNDS pp pp ff
-1.0000000000000000e+01 1.0000000000000000e+01
-1.0000000000000000e+01 1.0000000000000000e+01
-2.0499999999999998e+00 2.0499999999999998e+00
ITEM: ATOMS id type x y z mux muy muz 
1 1 -4.33162 -0.0935552 0.0501545 0 0 0 
2 1 -0.000337414 5.07482 -0.0490734 0 0 0 
3 1 4.77991 -0.111158 -0.000979473 0 0 0 
4 2 -5 0 0 2 0 0 
5 2 0 5 0 0 2 0 
6 3 5 0 0 0 0 0 
ITEM: TIMESTEP
11655
ITEM: NUMBER OF ATOMS
6
ITEM: BOX BOUNDS pp pp ff
-1.0000000000000000e+01 1.0000000000000000e+01
-1.0000000000000000e+01 1.0000000000000000e+01
-2.0499999999999998e+00 2.0499999999999998e+00
ITEM: ATOMS id type x y z mux muy muz 
1 1 -4.37429 -0.0860895 -0.0233661 -0 -0 0 
2 1 0.012141 5.0302 0.0513128 -0 -0 0 
3 1 4.903 -0.181655 -0.0124226 -0 -0 0 
4 2 -5 0 0 2 0 0 
5 2 0 5 0 0 2 0 
6 3 5 0 0 0 0 0 
ITEM: TIMESTEP
11988
ITEM: NUMBER OF ATOMS
6
ITEM: BOX BOUNDS pp pp ff
-1.0000000000000000e+01 1.0000000000000000e+01
-1.0000000000000000e+01 1.0000000000000000e+01
-2.0499999999999998e+00 2.0499999999999998e+00
ITEM: ATOMS id type x y z mux muy muz 
1 1 -4.46208 -0.148137 -0.0453564 0 -0 0 
2 1 0.0774371 5.00594 0.0457414 0 -0 0 
3 1 4.88041 -0.154384 -0.0513545 0 -0 0 
4 2 -5 0 0 2 0 0 
5 2 0 5 0 0 2 0 
6 3 5 0 0 0 0 0 
ITEM: TIMESTEP
12321
ITEM: NUMBER OF ATOMS
6
ITEM: BOX BOUNDS pp pp ff
-1.0000000000000000e+01 1.0000000000000000e+01
-1.0000000000000000e+01 1.0000000000000000e+01
-2.0499999999999998e+00 2.0499999999999998e+00
ITEM: ATOMS id type x y z mux muy muz 
1 1 -4.47718 -0.116281 0.00255265 0 0 0 
2 1 0.0585645 5.14278 -0.00420413 0 0 0 
3 1 4.99275 -0.171948 -0.0538014 0 0 0 
4 2 -5 0 0 2 0 0 
5 2 0 5 0 0 2 0 
6 3 5 0 0 0 0 0 
ITEM: TIMESTEP
12654
ITEM: NUMBER OF ATOMS
6
ITEM: BOX BOUNDS pp pp ff
-1.0000000000000000e+01 1.0000000000000000e+01
-1.0000000000000000e+01 1.0000000000000000e+01
-2.0499999999999998e+00 2.0499999999999998e+00
ITEM: ATOMS id type x y z mux muy muz 
1 1 -4.43328 -0.0715801 -0.00847253 -0 -0 0 
2 1 0.0851704 5.08019 0.0539157 -0 -0 0 
3 1 4.98019 -0.173622 -0.037487 -0 -0 0 
4 2 -5 0 0 2 0 0 
5 2 0 5 0 0 2 0 
6 3 5 0 0 0 0 0 
ITEM: TIMESTEP
12987
ITEM: NUMBER OF ATOMS
6
ITEM: BOX BOUNDS pp pp ff
-1.0000000000000000e+01 1.0000000000000000e+01
-1.0000000000000000e+01 1.0000000000000000e+01
-2.0499999999999998e+00 2.0499999999999998e+00
ITEM: ATOMS id type x y z mux muy muz 
1 1 -4.37786 -0.0722284 0.0429433 0 -0 0 
2 1 0.146762 5.04976 0.0299159 0 -0 0 
3 1 4.92106 -0.171918 -0.0514714 0 -0 0 
4 2 -5 0 0 2 0 0 
5 2 0 5 0 0 2 0 
6 3 5 0 0 0 0 0 
ITEM: TIMESTEP
13320
ITEM: NUMBER OF ATOMS
6
ITEM: BOX BOUNDS pp pp ff
-1.0000000000000000e+01 1.0000000000000000e+01
-1.0000000000000000e+01 1.0000000000000000e+01
-2.0499999999999998e+00 2.0499999999999998e+00
ITEM: ATOMS id type x y z mux muy muz 
1 1 -4.45502 0.0255828 0.0229044 0 0 0 
2 1 0.172876 5.0064 0.00419605 0 0 0 
3 1 4.87244 -0.0981776 -0.0288271 0 0 0 
4 2 -5 0 0 2 0 0 
5 2 0 5 0 0 2 0 
6 3 5 0 0 0 0 0 
ITEM: TIMESTEP
13653
ITEM: NUMBER OF ATOMS
6
ITEM: BOX BOUNDS pp pp ff
-1.0000000000000000e+01 1.0000000000000000e+01
-1.0000000000000000e+01 1.0000000000000000e+01
-2.0499999999999998e+00 2.0499999999999998e+00
ITEM: ATOMS id type x y z mux muy muz 
1 1 -4.46035 -0.0113203 0.050816 -0 -0 0 
2 1 0.0705144 4.86848 -0.00146235 -0 -0 0 
3 1 4.90703 -0.0712362 -0.00646271 -0 -0 0 
4 2 -5 0 0 2 0 0 
5 2 0 5 0 0 2 0 
6 3 5 0 0 0 0 0 
ITEM: TIMESTEP
13986
ITEM: NUMBER OF ATOMS
6
ITEM: BOX BOUNDS pp pp ff
-1.0000000000000000e+01 1.0000000000000000e+01
-1.0000000000000000e+01 1.0000000000000000e+01
-2.0499999999999998e+00 2.0499999999999998e+00
ITEM: ATOMS id type x y z mux muy muz 
1 1 -4.41258 -0.017113 0.0275106 0 -0 0 
2 1 0.103046 4.92343 -0.00306254 0 -0 0 
3 1 4.8693 -0.0392385 -0.050043 0 -0 0 
4 2 -5 0 0 2 0 0 
5 2 0 5 0 0 2 0 
6 3 5 0 0 0 0 0 
ITEM: TIMESTEP
14319
ITEM: NUMBER OF ATOMS
6
ITEM: BOX BOUNDS pp pp ff
-1.0000000000000000e+01 1.0000000000000000e+01
-1.0000000000000000e+01 1.0000000000000000e+01
-2.0499999999999998e+00 2.0499999999999998e+00
ITEM: ATOMS id type x y z mux muy muz 
1 1 -4.44218 0.0232891 0.0311046 0 0 0 
2 1 0.12867 4.98291 -0.0469846 0 0 0 
3 1 4.98105 -0.131145 -0.0348324 0 0 0 
4 2 -5 0 0 2 0 0 
5 2 0 5 0 0 2 0 
6 3 5 0 0 0 0 0 
ITEM: TIMESTEP
14652
ITEM: NUMBER OF ATOMS
6
ITEM: BOX BOUNDS pp pp ff
-1.0000000000000000e+01 1.0000000000000000e+01
-1.0000000000000000e+01 1.0000000000000000e+01
-2.0499999999999998e+00 2.0499999999999998e+00
ITEM: ATOMS id type x y z mux muy muz 
1 1 -4.36089 0.0586182 0.0158968 -0 -0 0 
2 1 0.128 4.97167 -0.0347582 -0 -0 0 
3 1 4.95935 -0.130037 -0.0166295 -0 -0 0 
4 2 -5 0 0 2 0 0 
5 2 0 5 0 0 2 0 
6 3 5 0 0 0 0 0 
ITEM: TIMESTEP
14985
ITEM: NUMBER OF ATOMS
6
ITEM: BOX BOUNDS pp pp ff
-1.0000000000000000e+01 1.0000000000000000e+01
-1.0000000000000000e+01 1.0000000000000000e+01
-2.0499999999999998e+00 2.0499999999999998e+00
ITEM: ATOMS id type x y z mux muy muz 
1 1 -4.47871 0.0197675 -0.0187015 0 -0 0 
2 1 0.195915 5.09157 0.0227673 0 -0 0 
3 1 4.94286 -0.0484434 0.0239019 0 -0 0 
4 2 -5 0 0 2 0 0 
5 2 0 5 0 0 2 0 
6 3 5 0 0 0 0 0 
ITEM: TIMESTEP
15318
ITEM: NUMBER OF ATOMS
6
ITEM: BOX BOUNDS pp pp ff
-1.0000000000000000e+01 1.0000000000000000e+01
-1.0000000000000000e+01 1.0000000000000000e+01
-2.0499999999999998e+00 2.0499999999999998e+00
ITEM: ATOMS id type x y z mux muy muz 
1 1 -4.52 0.0614808 -0.0114573 0 0 0 
2 1 0.219558 5.06181 0.027236 0 0 0 
3 1 4.93833 -0.0918663 -0.01865 0 0 0 
4 2 -5 0 0 2 0 0 
5 2 0 5 0 0 2 0 
6 3 5 0 0 0 0 0 
ITEM: TIMESTEP
15651
ITEM: NUMBER OF ATOMS
6
ITEM: BOX BOUNDS pp pp ff
-1.0000000000000000e+01 1.0000000000000000e+01
-1.0000000000000000e+01 1.0000000000000000e+01
-2.0499999999999998e+00 2.0499999999999998e+00
ITEM: ATOMS id type x y z mux muy muz 
1 1 -4.45209 0.0402188 0.0312455 -0 -0 0 
2 1 0.185077 5.12057 0.0275677 -0 -0 0 
3 1 4.87121 0.00562799 0.0448941 -0 -0 0 
4 2 -5 0 0 2 0 0 
5 2 0 5 0 0 2 0 
6 3 5 0 0 0 0 0 
ITEM: TIMESTEP
15984
ITEM: NUMBER OF ATOMS
6
ITEM: BOX BOUNDS pp pp ff
-1.0000000000000000e+01 1.0000000000000000e+01
-1.0000000000000000e+01 1.0000000000000000e+01
-2.0499999999999998e+00 2.0499999999999998e+00
ITEM: ATOMS id type x y z mux muy muz 
1 1 -4.45717 0.00906739 0.0367612 0 -0 0 
2 1 0.183249 5.06713 0.0478552 0 -0 0 
3 1 4.83238 0.0606281 -0.0301844 0 -0 0 
4 2 -5 0 0 2 0 0 
5 2 0 5 0 0 2 0 
6 3 5 0 0 0 0 0 
ITEM: TIMESTEP
16317
ITEM: NUMBER OF ATOMS
6
ITEM: BOX BOUNDS pp pp ff
-1.0000000000000000e+01 1.0000000000000000e+01
-1.0000000000000000e+01 1.0000000000000000e+01
-2.0499999999999998e+00 2.0499999999999998e+00
ITEM: ATOMS id type x y z mux muy muz 
1 1 -4.51966 -0.031393 -0.0400564 0 0 0 
2 1 0.131364 5.03913 0.0216397 0 0 0 
3 1 4.78589 0.122627 0.0337066 0 0 0 
4 2 -5 0 0 2 0 0 
5 2 0 5 0 0 2 0 
6 3 5 0 0 0 0 0 
ITEM: TIMESTEP
16650
ITEM: NUMBER OF ATOMS
6
ITEM: BOX BOUNDS pp pp ff
-1.0000000000000000e+01 1.0000000000000000e+01
-1.0000000000000000e+01 1.0000000000000000e+01
-2.0499999999999998e+00 2.0499999999999998e+00
ITEM: ATOMS id type x y z mux muy muz 
1 1 -4.45782 0.114335 0.0285201 -0 0 0 
2 1 0.0113636 5.09434 -0.00615849 -0 0 0 
3 1 4.85977 0.152136 0.0390311 -0 0 0 
4 2 -5 0 0 2 0 0 
5 2 0 5 0 0 2 0 
6 3 5 0 0 0 0 0 
ITEM: TIMESTEP
16983
ITEM: NUMBER OF ATOMS
6
ITEM: BOX BOUNDS pp pp ff
-1.0000000000000000e+01 1.0000000000000000e+01
-1.0000000000000000e+01 1.0000000000000000e+01
-2.0499999999999998e+00 2.0499999999999998e+00
ITEM: ATOMS id type x y z mux muy muz 
1 1 -4.47385 0.0779969 0.0528931 0 -0 0 
2 1 -0.00255951 5.06517 0.0196473 0 -0 0 
3 1 4.93444 0.159005 0.0166695 0 -0 0 
4 2 -5 0 0 2 0 0 
5 2 0 5 0 0 2 0 
6 3 5 0 0 0 0 0 
ITEM: TIMESTEP
17316
ITEM: NUMBER OF ATOMS
6
ITEM: BOX BOUNDS pp pp ff
-1.0000000000000000e+01 1.0000000000000000e+01
-1.0000000000000000e+01 1.0000000000000000e+01
-2.0499999999999998e+00 2.0499999999999998e+00
ITEM: ATOMS id type x y z mux muy muz 
1 1 -4.44318 -0.115264 -0.00212559 0 0 0 
2 1 -0.0438745 5.15197 0.0141952 0 0 0 
3 1 4.93351 0.112911 -0.00610083 0 0 0 
4 2 -5 0 0 2 0 0 
5 2 0 5 0 0 2 0 
6 3 5 0 0 0 0 0 
ITEM: TIMESTEP
17649
ITEM: NUMBER OF ATOMS
6
ITEM: BOX BOUNDS pp pp ff
-1.0000000000000000e+01 1.0000000000000000e+01
-1.0000000000000000e+01 1.0000000000000000e+01
-2.0499999999999998e+00 2.0499999999999998e+00
ITEM: ATOMS id type x y z mux muy muz 
1 1 -4.44517 -0.109683 0.0248701 -0 0 0 
2 1 -0.0535262 5.27531 -0.0430971 -0 0 0 
3 1 4.89681 0.126609 -0.0171429 -0 0 0 
4 2 -5 0 0 2 0 0 
5 2 0 5 0 0 2 0 
6 3 5 0 0 0 0 0 
ITEM: TIMESTEP
17982
ITEM: NUMBER OF ATOMS
6
ITEM: BOX BOUNDS pp pp ff
-1.0000000000000000e+01 1.0000000000000000e+01
-1.0000000000000000e+01 1.0000000000000000e+01
-2.0499999999999998e+00 2.0499999999999998e+00
ITEM: ATOMS id type x y z mux muy muz 
1 1 -4.39186 -0.17076 -0.0184203 0 -0 0 
2 1 -0.0577213 5.27652 -0.0236391 0 -0 0 
3 1 4.82448 0.153264 -0.0275379 0 -0 0 
4 2 -5 0 0 2 0 0 
5 2 0 5 0 0 2 0 
6 3 5 0 0 0 0 0 
ITEM: TIMESTEP
18315
ITEM: NUMBER OF ATOMS
6
ITEM: BOX BOUNDS pp pp ff
-1.0000000000000000e+01 1.0000000000000000e+01
-1.0000000000000000e+01 1.0000000000000000e+01
-2.0499999999999998e+00 2.0499999999999998e+00
ITEM: ATOMS id type x y z mux muy muz 
1 1 -4.36739 -0.166207 0.0582743 0 0 0 
2 1 -0.0759691 5.29775 -0.0106028 0 0 0 
3 1 4.76021 0.146413 0.0408445 0 0 0 
4 2 -5 0 0 2 0 0 
5 2 0 5 0 0 2 0 
6 3 5 0 0 0 0 0 
ITEM: TIMESTEP
18648
ITEM: NUMBER OF ATOMS
6
ITEM: BOX BOUNDS pp pp ff
-1.0000000000000000e+01 1.0000000000000000e+01
-1.0000000000000000e+01 1.0000000000000000e+01
-2.0499999999999998e+00 2.0499999999999998e+00
ITEM: ATOMS id type x y z mux muy muz 
1 1 -4.34566 -0.125983 -0.0431317 -0 0 0 
2 1 -0.00308942 5.26123 -0.0220408 -0 0 0 
3 1 4.80315 0.159122 -0.0293315 -0 0 0 
4 2 -5 0 0 2 0 0 
5 2 0 5 0 0 2 0 
6 3 5 0 0 0 0 0 
ITEM: TIMESTEP
18981
ITEM: NUMBER OF ATOMS
6
ITEM: BOX BOUNDS pp pp ff
-1.0000000000000000e+01 1.0000000000000000e+01
-1.0000000000000000e+01 1.0000000000000000e+01
-2.0499999999999998e+00 2.0499999999999998e+00
ITEM: ATOMS id type x y z mux muy muz 
1 1 -4.3281 -0.138104 -0.0493638 0 -0 0 
2 1 0.00692756 5.35896 -0.00348265 0 -0 0 
3 1 4.80352 0.216771 -0.0387137 0 -0 0 
4 2 -5 0 0 2 0 0 
5 2 0 5 0 0 2 0 
6 3 5 0 0 0 0 0 
ITEM: TIMESTEP
19314
ITEM: NUMBER OF ATOMS
6
ITEM: BOX BOUNDS pp pp ff
-1.0000000000000000e+01 1.0000000000000000e+01
-1.0000000000000000e+01 1.0000000000000000e+01
-2.0499999999999998e+00 2.0499999999999998e+00
ITEM: ATOMS id type x y z mux muy muz 
1 1 -4.31746 -0.123481 -0.0431502 0 0 0 
2 1 -0.0353097 5.38126 0.0167497 0 0 0 
3 1 4.74397 0.166685 0.0110833 0 0 0 
4 2 -5 0 0 2 0 0 
5 2 0 5 0 0 2 0 
6 3 5 0 0 0 0 0 
ITEM: TIMESTEP
19647
ITEM: NUMBER OF ATOMS
6
ITEM: BOX BOUNDS pp pp ff
-1.0000000000000000e+01 1.0000000000000000e+01
-1.0000000000000000e+01 1.0000000000000000e+01
-2.0499999999999998e+00 2.0499999999999998e+00
ITEM: ATOMS id type x y z mux muy muz 
1 1 -4.37577 -0.126504 0.0306506 -0 0 0 
2 1 0.0321891 5.26343 0.050032 -0 0 0 
3 1 4.84564 0.236622 -0.049678 -0 0 0 
4 2 -5 0 0 2 0 0 
5 2 0 5 0 0 2 0 
6 3 5 0 0 0 0 0 
ITEM: TIMESTEP
19980
ITEM: NUMBER OF ATOMS
6
ITEM: BOX BOUNDS pp pp ff
-1.0000000000000000e+01 1.0000000000000000e+01
-1.0000000000000000e+01 1.0000000000000000e+01
-2.0499999999999998e+00 2.0499999999999998e+00
ITEM: ATOMS id type x y z mux muy muz 
1 1 -4.42667 -0.225809 0.0257365 0 -0 0 
2 1 -0.108959 5.21252 -0.000678508 0 -0 0 
3 1 4.86948 0.162879 0.0539909 0 -0 0 
4 2 -5 0 0 2 0 0 
5 2 0 5 0 0 2 0 
6 3 5 0 0 0 0 0 
ITEM: TIMESTEP
20313
ITEM: NUMBER OF ATOMS
6
ITEM: BOX BOUNDS pp pp ff
-1.0000000000000000e+01 1.0000000000000000e+01
-1.0000000000000000e+01 1.0000000000000000e+01
-2.0499999999999998e+00 2.0499999999999998e+00
ITEM: ATOMS id type x y z mux muy muz 
1 1 -4.36071 -0.233013 -0.0228963 0 0 0 
2 1 -0.0364407 5.25964 0.0302546 0 0 0 
3 1 4.89379 0.113764 -0.0303776 0 0 0 
4 2 -5 0 0 2 0 0 
5 2 0 5 0 0 2 0 
6 3 5 0 0 0 0 0 
ITEM: TIMESTEP
20646
ITEM: NUMBER OF ATOMS
6
ITEM: BOX BOUNDS pp pp ff
-1.0000000000000000e+01 1.0000000000000000e+01
-1.0000000000000000e+01 1.0000000000000000e+01
-2.0499999999999998e+00 2.0499999999999998e+00
ITEM: ATOMS id type x y z mux muy muz 
1 1 -4.45463 -0.154524 -0.0225298 -0 0 0 
2 1 -0.0255529 5.34904 0.0292062 -0 0 0 
3 1 4.94591 0.128639 -0.0406115 -0 0 0 
4 2 -5 0 0 2 0 0 
5 2 0 5 0 0 2 0 
6 3 5 0 0 0 0 0 
ITEM: TIMESTEP
20979
ITEM: NUMBER OF ATOMS
6
ITEM: BOX BOUNDS pp pp ff
-1.0000000000000000e+01 1.0000000000000000e+01
-1.0000000000000000e+01 1.0000000000000000e+01
-2.0499999999999998e+00 2.0499999999999998e+00
ITEM: ATOMS id type x y z mux muy muz 
1 1 -4.4567 -0.104064 0.00411984 0 -0 0 
2 1 -0.0215731 5.43835 -0.0323347 0 -0 0 
3 1 4.92967 0.215768 -0.040455 0 -0 0 
4 2 -5 0 0 2 0 0 
5 2 0 5 0 0 2 0 
6 3 5 0 0 0 0 0 
ITEM: TIMESTEP
21312
ITEM: NUMBER OF ATOMS
6
ITEM: BOX BOUNDS pp pp ff
-1.0000000000000000e+01 1.0000000000000000e+01
-1.0000000000000000e+01 1.0000000000000000e+01
-2.0499999999999998e+00 2.0499999999999998e+00
ITEM: ATOMS id type x y z mux muy muz 
1 1 -4.38592 -0.0989577 -0.0271146 0 0 0 
2 1 -0.0321785 5.46665 -0.0140802 0 0 0 
3 1 4.86482 0.2012 -0.0212738 0 0 0 
4 2 -5 0 0 2 0 0 
5 2 0 5 0 0 2 0 
6 3 5 0 0 0 0 0 
ITEM: TIMESTEP
21645
ITEM: NUMBER OF ATOMS
6
ITEM: BOX BOUNDS pp pp ff
-1.0000000000000000e+01 1.0000000000000000e+01
-1.0000000000000000e+01 1.0000000000000000e+01
-2.0499999999999998e+00 2.0499999999999998e+00
ITEM: ATOMS id type x y z mux muy muz 
1 1 -4.45842 0.0201149 0.00383322 -0 0 0 
2 1 -0.0161759 5.3673 -0.00512383 -0 0 0 
3 1 4.88924 0.197486 0.00692309 -0 0 0 
4 2 -5 0 0 2 0 0 
5 2 0 5 0 0 2 0 
6 3 5 0 0 0 0 0 
ITEM: TIMESTEP
21978
ITEM: NUMBER OF ATOMS
6
ITEM: BOX BOUNDS pp pp ff
-1.0000000000000000e+01 1.0000000000000000e+01
-1.0000000000000000e+01 1.0000000000000000e+01
-2.0499999999999998e+00 2.0499999999999998e+00
ITEM: ATOMS id type x y z mux muy muz 
1 1 -4.47282 0.0775172 -0.0195108 0 -0 0 
2 1 -0.0826781 5.37227 0.0469768 0 -0 0 
3 1 4.83927 0.104941 0.0123254 0 -0 0 
4 2 -5 0 0 2 0 0 
5 2 0 5 0 0 2 0 
6 3 5 0 0 0 0 0 
ITEM: TIMESTEP
22311
ITEM: NUMBER OF ATOMS
6
ITEM: BOX BOUNDS pp pp ff
-1.0000000000000000e+01 1.0000000000000000e+01
-1.0000000000000000e+01 1.0000000000000000e+01
-2.0499999999999998e+00 2.0499999999999998e+00
ITEM: ATOMS id type x y z mux muy muz 
1 1 -4.55704 0.0127188 0.0451449 0 0 0 
2 1 -0.0805946 5.31556 0.0525098 0 0 0 
3 1 4.79594 0.111539 -0.00226937 0 0 0 
4 2 -5 0 0 2 0 0 
5 2 0 5 0 0 2 0 
6 3 5 0 0 0 0 0 
ITEM: TIMESTEP
22644
ITEM: NUMBER OF ATOMS
6
ITEM: BOX BOUNDS pp pp ff
-1.0000000000000000e+01 1.0000000000000000e+01
-1.0000000000000000e+01 1.0000000000000000e+01
-2.0499999999999998e+00 2.0499999999999998e+00
ITEM: ATOMS id type x y z mux muy muz 
1 1 -4.50687 -0.0627545 -0.0593492 -0 0 0 
2 1 -0.10443 5.32361 -0.0145765 -0 0 0 
3 1 4.8074 0.0279442 -0.0277915 -0 0 0 
4 2 -5 0 0 2 0 0 
5 2 0 5 0 0 2 0 
6 3 5 0 0 0 0 0 
ITEM: TIMESTEP
22977
ITEM: NUMBER OF ATOMS
6
ITEM: BOX BOUNDS pp pp ff
-1.0000000000000000e+01 1.0000000000000000e+01
-1.0000000000000000e+01 1.0000000000000000e+01
-2.0499999999999998e+00 2.0499999999999998e+00
ITEM: ATOMS id type x y z mux muy muz 
1 1 -4.62696 -0.133491 -0.039786 0 -0 0 
2 1 0.00277746 5.39283 0.0449106 0 -0 0 
3 1 4.88233 0.132561 -0.00222439 0 -0 0 
4 2 -5 0 0 2 0 0 
5 2 0 5 0 0 2 0 
6 3 5 0 0 0 0 0 
ITEM: TIMESTEP
23310
ITEM: NUMBER OF ATOMS
6
ITEM: BOX BOUNDS pp pp ff
-1.0000000000000000e+01 1.0000000000000000e+01
-1.0000000000000000e+01 1.0000000000000000e+01
-2.0499999999999998e+00 2.0499999999999998e+00
ITEM: ATOMS id type x y z mux muy muz 
1 1 -4.53275 -0.0465288 -0.00498241 0 0 0 