ITEM: TIMESTEP
0
ITEM: NUMBER OF ATOMS
6
ITEM: BOX BOUNDS pp pp ff
-1.0000000000000000e+01 1.0000000000000000e+01
-1.0000000000000000e+01 1.0000000000000000e+01
-2.0499999999999998e+00 2.0499999999999998e+00
ITEM: ATOMS id type x y z mux muy muz 
1 1 0 2.5 0 0 0 0 
2 2 -2.5 0 0 0 0 0 
3 2 0 0 0 0 0 0 
4 3 -2.5 0 0 2 0 0 
5 3 0 2.5 0 0 2 0 
6 4 0 0 0 0 0 0 
ITEM: TIMESTEP
333
ITEM: NUMBER OF ATOMS
6
ITEM: BOX BOUNDS pp pp ff
-1.0000000000000000e+01 1.0000000000000000e+01
-1.0000000000000000e+01 1.0000000000000000e+01
-2.0499999999999998e+00 2.0499999999999998e+00
ITEM: ATOMS id type x y z mux muy muz 
1 1 -0.0123977 3.00049 -0.00992867 -0 0 0 
2 2 -2.40527 -0.103988 0.00125139 -0 0 0 
3 2 0.0134001 -0.413308 -0.010849 -0 0 0 
4 3 -2.5 0 0 2 0 0 
5 3 0 2.5 0 0 2 0 
6 4 0 0 0 0 0 0 
ITEM: TIMESTEP
666
ITEM: NUMBER OF ATOMS
6
ITEM: BOX BOUNDS pp pp ff
-1.0000000000000000e+01 1.0000000000000000e+01
-1.0000000000000000e+01 1.0000000000000000e+01
-2.0499999999999998e+00 2.0499999999999998e+00
ITEM: ATOMS id type x y z mux muy muz 
1 1 -0.0494368 3.02287 0.034487 -0 -0 0 
2 2 -2.37853 -0.229097 -0.0509055 -0 -0 0 
3 2 0.000367277 -0.376801 -0.0482788 -0 -0 0 
4 3 -2.5 0 0 2 0 0 
5 3 0 2.5 0 0 2 0 
6 4 0 0 0 0 0 0 
ITEM: TIMESTEP
999
ITEM: NUMBER OF ATOMS
6
ITEM: BOX BOUNDS pp pp ff
-1.0000000000000000e+01 1.0000000000000000e+01
-1.0000000000000000e+01 1.0000000000000000e+01
-2.0499999999999998e+00 2.0499999999999998e+00
ITEM: ATOMS id type x y z mux muy muz 
1 1 -0.10913 3.08077 -0.0175656 0 -0 0 
2 2 -2.20984 -0.154536 -0.0424044 0 -0 0 
3 2 0.0503354 -0.368976 -0.0341187 0 -0 0 
4 3 -2.5 0 0 2 0 0 
5 3 0 2.5 0 0 2 0 
6 4 0 0 0 0 0 0 
ITEM: TIMESTEP
1332
ITEM: NUMBER OF ATOMS
6
ITEM: BOX BOUNDS pp pp ff
-1.0000000000000000e+01 1.0000000000000000e+01
-1.0000000000000000e+01 1.0000000000000000e+01
-2.0499999999999998e+00 2.0499999999999998e+00
ITEM: ATOMS id type x y z mux muy muz 
1 1 -0.0582184 3.07351 -0.0168668 -0 0 0 
2 2 -2.23544 -0.236106 0.018886 -0 0 0 
3 2 0.0138034 -0.238551 -0.0222919 -0 0 0 
4 3 -2.5 0 0 2 0 0 
5 3 0 2.5 0 0 2 0 
6 4 0 0 0 0 0 0 
ITEM: TIMESTEP
1665
ITEM: NUMBER OF ATOMS
6
ITEM: BOX BOUNDS pp pp ff
-1.0000000000000000e+01 1.0000000000000000e+01
-1.0000000000000000e+01 1.0000000000000000e+01
-2.0499999999999998e+00 2.0499999999999998e+00
ITEM: ATOMS id type x y z mux muy muz 
1 1 -0.020277 3.12025 0.0200579 -0 -0 0 
2 2 -2.16134 -0.189611 0.00196697 -0 -0 0 
3 2 0.0589057 -0.254887 0.00948597 -0 -0 0 
4 3 -2.5 0 0 2 0 0 
5 3 0 2.5 0 0 2 0 
6 4 0 0 0 0 0 0 
ITEM: TIMESTEP
1998
ITEM: NUMBER OF ATOMS
6
ITEM: BOX BOUNDS pp pp ff
-1.0000000000000000e+01 1.0000000000000000e+01
-1.0000000000000000e+01 1.0000000000000000e+01
-2.0499999999999998e+00 2.0499999999999998e+00
ITEM: ATOMS id type x y z mux muy muz 
1 1 0.0354779 3.06741 0.00942191 0 -0 0 
2 2 -1.98207 -0.166387 0.0176012 0 -0 0 
3 2 0.0224027 -0.232648 0.0173513 0 -0 0 
4 3 -2.5 0 0 2 0 0 
5 3 0 2.5 0 0 2 0 
6 4 0 0 0 0 0 0 
ITEM: TIMESTEP
2331
ITEM: NUMBER OF ATOMS
6
ITEM: BOX BOUNDS pp pp ff
-1.0000000000000000e+01 1.0000000000000000e+01
-1.0000000000000000e+01 1.0000000000000000e+01
-2.0499999999999998e+00 2.0499999999999998e+00
ITEM: ATOMS id type x y z mux muy muz 
1 1 0.0257862 3.07105 0.0422191 -0 0 0 
2 2 -2.04185 -0.181324 0.0182444 -0 0 0 
3 2 0.0699475 -0.168549 0.0407561 -0 0 0 
4 3 -2.5 0 0 2 0 0 
5 3 0 2.5 0 0 2 0 
6 4 0 0 0 0 0 0 
ITEM: TIMESTEP
2664
ITEM: NUMBER OF ATOMS
6
ITEM: BOX BOUNDS pp pp ff
-1.0000000000000000e+01 1.0000000000000000e+01
-1.0000000000000000e+01 1.0000000000000000e+01
-2.0499999999999998e+00 2.0499999999999998e+00
ITEM: ATOMS id type x y z mux muy muz 
1 1 -0.0396277 3.00373 0.0204056 -0 -0 0 
2 2 -2.06828 -0.206548 -0.0409267 -0 -0 0 
3 2 0.161377 -0.132765 0.0351947 -0 -0 0 
4 3 -2.5 0 0 2 0 0 
5 3 0 2.5 0 0 2 0 
6 4 0 0 0 0 0 0 
ITEM: TIMESTEP
2997
ITEM: NUMBER OF ATOMS
6
ITEM: BOX BOUNDS pp pp ff
-1.0000000000000000e+01 1.0000000000000000e+01
-1.0000000000000000e+01 1.0000000000000000e+01
-2.0499999999999998e+00 2.0499999999999998e+00
ITEM: ATOMS id type x y z mux muy muz 
1 1 -0.0643063 2.97282 -0.0117953 0 -0 0 
2 2 -2.07109 -0.16022 -0.0205311 0 -0 0 
3 2 0.130235 -0.197052 0.0132787 0 -0 0 
4 3 -2.5 0 0 2 0 0 
5 3 0 2.5 0 0 2 0 
6 4 0 0 0 0 0 0 
ITEM: TIMESTEP
3330
ITEM: NUMBER OF ATOMS
6
ITEM: BOX BOUNDS pp pp ff
-1.0000000000000000e+01 1.0000000000000000e+01
-1.0000000000000000e+01 1.0000000000000000e+01
-2.0499999999999998e+00 2.0499999999999998e+00
ITEM: ATOMS id type x y z mux muy muz 
1 1 -0.00803827 3.08358 0.0221754 -0 0 0 
2 2 -2.02739 -0.137627 -0.00355346 -0 0 0 
3 2 0.119579 0.00419882 0.00635992 -0 0 0 
4 3 -2.5 0 0 2 0 0 
5 3 0 2.5 0 0 2 0 
6 4 0 0 0 0 0 0 
ITEM: TIMESTEP
3663
ITEM: NUMBER OF ATOMS
6
ITEM: BOX BOUNDS pp pp ff
-1.0000000000000000e+01 1.0000000000000000e+01
-1.0000000000000000e+01 1.0000000000000000e+01
-2.0499999999999998e+00 2.0499999999999998e+00
ITEM: ATOMS id type x y z mux muy muz 
1 1 0.00353319 3.21188 -0.0238397 -0 -0 0 
2 2 -2.04526 -0.0699785 0.0363776 -0 -0 0 
3 2 0.0477242 0.0298076 0.045628 -0 -0 0 
4 3 -2.5 0 0 2 0 0 
5 3 0 2.5 0 0 2 0 
6 4 0 0 0 0 0 0 
ITEM: TIMESTEP
3996
ITEM: NUMBER OF ATOMS
6
ITEM: BOX BOUNDS pp pp ff
-1.0000000000000000e+01 1.0000000000000000e+01
-1.0000000000000000e+01 1.0000000000000000e+01
-2.0499999999999998e+00 2.0499999999999998e+00
ITEM: ATOMS id type x y z mux muy muz 
1 1 -0.0140293 3.17324 0.0484488 0 -0 0 
2 2 -2.06141 -0.0660889 0.0043998 0 -0 0 
3 2 0.0737729 0.0353395 -0.0245667 0 -0 0 
4 3 -2.5 0 0 2 0 0 
5 3 0 2.5 0 0 2 0 
6 4 0 0 0 0 0 0 
ITEM: TIMESTEP
4329
ITEM: NUMBER OF ATOMS
6
ITEM: BOX BOUNDS pp pp ff
-1.0000000000000000e+01 1.0000000000000000e+01
-1.0000000000000000e+01 1.0000000000000000e+01
-2.0499999999999998e+00 2.0499999999999998e+00
ITEM: ATOMS id type x y z mux muy muz 
1 1 0.0259453 3.13707 -0.0486715 -0 0 0 
2 2 -1.97242 -0.0833171 -0.0232904 -0 0 0 
3 2 0.118664 0.0475152 -0.0164074 -0 0 0 
4 3 -2.5 0 0 2 0 0 
5 3 0 2.5 0 0 2 0 
6 4 0 0 0 0 0 0 
ITEM: TIMESTEP
4662
ITEM: NUMBER OF ATOMS
6
ITEM: BOX BOUNDS pp pp ff
-1.0000000000000000e+01 1.0000000000000000e+01
-1.0000000000000000e+01 1.0000000000000000e+01
-2.0499999999999998e+00 2.0499999999999998e+00
ITEM: ATOMS id type x y z mux muy muz 
1 1 -0.077548 3.10159 -0.0120005 -0 -0 0 
2 2 -1.94393 -0.0891055 0.0034548 -0 -0 0 
3 2 0.0923736 0.0521184 0.0240367 -0 -0 0 
4 3 -2.5 0 0 2 0 0 
5 3 0 2.5 0 0 2 0 
6 4 0 0 0 0 0 0 
ITEM: TIMESTEP
4995
ITEM: NUMBER OF ATOMS
6
ITEM: BOX BOUNDS pp pp ff
-1.0000000000000000e+01 1.0000000000000000e+01
-1.0000000000000000e+01 1.0000000000000000e+01
-2.0499999999999998e+00 2.0499999999999998e+00
ITEM: ATOMS id type x y z mux muy muz 
1 1 -0.154801 3.0518 -0.026403 0 -0 0 
2 2 -1.90713 -0.0930162 0.0249941 0 -0 0 
3 2 0.116318 -0.0129581 -0.0327377 0 -0 0 
4 3 -2.5 0 0 2 0 0 
5 3 0 2.5 0 0 2 0 
6 4 0 0 0 0 0 0 
ITEM: TIMESTEP
5328
ITEM: NUMBER OF ATOMS
6
ITEM: BOX BOUNDS pp pp ff
-1.0000000000000000e+01 1.0000000000000000e+01
-1.0000000000000000e+01 1.0000000000000000e+01
-2.0499999999999998e+00 2.0499999999999998e+00
ITEM: ATOMS id type x y z mux muy muz 
1 1 -0.0939154 3.05895 0.00162034 -0 0 0 
2 2 -1.88695 -0.115705 -0.00295181 -0 0 0 
3 2 0.172798 -0.0105433 -0.0376216 -0 0 0 
4 3 -2.5 0 0 2 0 0 
5 3 0 2.5 0 0 2 0 
6 4 0 0 0 0 0 0 
ITEM: TIMESTEP
5661
ITEM: NUMBER OF ATOMS
6
ITEM: BOX BOUNDS pp pp ff
-1.0000000000000000e+01 1.0000000000000000e+01
-1.0000000000000000e+01 1.0000000000000000e+01
-2.0499999999999998e+00 2.0499999999999998e+00
ITEM: ATOMS id type x y z mux muy muz 
1 1 -0.00895334 3.01937 0.0177354 -0 -0 0 
2 2 -1.85909 -0.0532641 0.0373048 -0 -0 0 
3 2 0.160911 -0.0269252 0.00498099 -0 -0 0 
4 3 -2.5 0 0 2 0 0 
5 3 0 2.5 0 0 2 0 
6 4 0 0 0 0 0 0 
ITEM: TIMESTEP
5994
ITEM: NUMBER OF ATOMS
6
ITEM: BOX BOUNDS pp pp ff
-1.0000000000000000e+01 1.0000000000000000e+01
-1.0000000000000000e+01 1.0000000000000000e+01
-2.0499999999999998e+00 2.0499999999999998e+00
ITEM: ATOMS id type x y z mux muy muz 
1 1 -0.0618162 3.02418 0.0420048 0 -0 0 
2 2 -1.97721 0.0543418 0.0494227 0 -0 0 
3 2 0.139882 -0.0210066 0.0148978 0 -0 0 
4 3 -2.5 0 0 2 0 0 
5 3 0 2.5 0 0 2 0 
6 4 0 0 0 0 0 0 
ITEM: TIMESTEP
6327
ITEM: NUMBER OF ATOMS
6
ITEM: BOX BOUNDS pp pp ff
-1.0000000000000000e+01 1.0000000000000000e+01
-1.0000000000000000e+01 1.0000000000000000e+01
-2.0499999999999998e+00 2.0499999999999998e+00
ITEM: ATOMS id type x y z mux muy muz 
1 1 0.0395474 2.99741 -0.041158 -0 0 0 
2 2 -1.94018 -0.00340095 0.0211026 -0 0 0 
3 2 0.0928353 -0.0134581 0.00918958 -0 0 0 
4 3 -2.5 0 0 2 0 0 
5 3 0 2.5 0 0 2 0 
6 4 0 0 0 0 0 0 
ITEM: TIMESTEP
6660
ITEM: NUMBER OF ATOMS
6
ITEM: BOX BOUNDS pp pp ff
-1.0000000000000000e+01 1.0000000000000000e+01
-1.0000000000000000e+01 1.0000000000000000e+01
-2.0499999999999998e+00 2.0499999999999998e+00
ITEM: ATOMS id type x y z mux muy muz 
1 1 0.00945159 3.01696 -0.0385602 -0 -0 0 
2 2 -1.90775 -0.0014477 0.0310621 -0 -0 0 
3 2 0.116397 -0.0146521 0.00488332 -0 -0 0 
4 3 -2.5 0 0 2 0 0 
5 3 0 2.5 0 0 2 0 
6 4 0 0 0 0 0 0 
ITEM: TIMESTEP
6993
ITEM: NUMBER OF ATOMS
6
ITEM: BOX BOUNDS pp pp ff
-1.0000000000000000e+01 1.0000000000000000e+01
-1.0000000000000000e+01 1.0000000000000000e+01
-2.0499999999999998e+00 2.0499999999999998e+00
ITEM: ATOMS id type x y z mux muy muz 
1 1 0.00406367 3.07765 0.00679924 0 -0 0 
2 2 -1.96129 0.0135665 0.00151104 0 -0 0 
3 2 0.0878888 -0.00132828 0.0163341 0 -0 0 
4 3 -2.5 0 0 2 0 0 
5 3 0 2.5 0 0 2 0 
6 4 0 0 0 0 0 0 
ITEM: TIMESTEP
7326
ITEM: NUMBER OF ATOMS
6
ITEM: BOX BOUNDS pp pp ff
-1.0000000000000000e+01 1.0000000000000000e+01
-1.0000000000000000e+01 1.0000000000000000e+01
-2.0499999999999998e+00 2.0499999999999998e+00
ITEM: ATOMS id type x y z mux muy muz 
1 1 0.0117819 3.03432 -0.0105502 -0 0 0 
2 2 -2.02802 0.00608566 -0.000202542 -0 0 0 
3 2 -0.0162822 -0.044484 -0.0300736 -0 0 0 
4 3 -2.5 0 0 2 0 0 
5 3 0 2.5 0 0 2 0 
6 4 0 0 0 0 0 0 
ITEM: TIMESTEP
7659
ITEM: NUMBER OF ATOMS
6
ITEM: BOX BOUNDS pp pp ff
-1.0000000000000000e+01 1.0000000000000000e+01
-1.0000000000000000e+01 1.0000000000000000e+01
-2.0499999999999998e+00 2.0499999999999998e+00
ITEM: ATOMS id type x y z mux muy muz 
1 1 0.129706 3.02007 0.0245824 -0 -0 0 
2 2 -2.05094 0.00655284 -0.0259113 -0 -0 0 
3 2 0.0622173 -0.00362549 -0.0517758 -0 -0 0 
4 3 -2.5 0 0 2 0 0 
5 3 0 2.5 0 0 2 0 
6 4 0 0 0 0 0 0 
ITEM: TIMESTEP
7992
ITEM: NUMBER OF ATOMS
6
ITEM: BOX BOUNDS pp pp ff
-1.0000000000000000e+01 1.0000000000000000e+01
-1.0000000000000000e+01 1.0000000000000000e+01
-2.0499999999999998e+00 2.0499999999999998e+00
ITEM: ATOMS id type x y z mux muy muz 
1 1 0.152953 3.116 0.0519258 0 -0 0 
2 2 -1.98051 -0.064566 -0.0568245 0 -0 0 
3 2 0.0908084 0.011928 -0.0502557 0 -0 0 
4 3 -2.5 0 0 2 0 0 
5 3 0 2.5 0 0 2 0 
6 4 0 0 0 0 0 0 
ITEM: TIMESTEP
8325
ITEM: NUMBER OF ATOMS
6
ITEM: BOX BOUNDS pp pp ff
-1.0000000000000000e+01 1.0000000000000000e+01
-1.0000000000000000e+01 1.0000000000000000e+01
-2.0499999999999998e+00 2.0499999999999998e+00
ITEM: ATOMS id type x y z mux muy muz 
1 1 0.173185 3.16908 -0.0447512 0 0 0 
2 2 -2.04625 0.0298846 -0.0137948 0 0 0 
3 2 0.0428169 0.1042 -0.0419935 0 0 0 
4 3 -2.5 0 0 2 0 0 
5 3 0 2.5 0 0 2 0 
6 4 0 0 0 0 0 0 
ITEM: TIMESTEP
8658
ITEM: NUMBER OF ATOMS
6
ITEM: BOX BOUNDS pp pp ff
-1.0000000000000000e+01 1.0000000000000000e+01
-1.0000000000000000e+01 1.0000000000000000e+01
-2.0499999999999998e+00 2.0499999999999998e+00
ITEM: ATOMS id type x y z mux muy muz 
1 1 0.116364 3.17333 -0.0468766 -0 -0 0 
2 2 -2.04206 0.093724 0.00884648 -0 -0 0 
3 2 -0.0125695 0.0306957 0.0527105 -0 -0 0 
4 3 -2.5 0 0 2 0 0 
5 3 0 2.5 0 0 2 0 
6 4 0 0 0 0 0 0 
ITEM: TIMESTEP
8991
ITEM: NUMBER OF ATOMS
6
ITEM: BOX BOUNDS pp pp ff
-1.0000000000000000e+01 1.0000000000000000e+01
-1.0000000000000000e+01 1.0000000000000000e+01
-2.0499999999999998e+00 2.0499999999999998e+00
ITEM: ATOMS id type x y z mux muy muz 
1 1 0.201536 3.18954 -0.0333906 0 -0 0 
2 2 -2.11736 0.00507258 -0.0141903 0 -0 0 
3 2 0.0521039 0.100686 0.0453265 0 -0 0 
4 3 -2.5 0 0 2 0 0 
5 3 0 2.5 0 0 2 0 
6 4 0 0 0 0 0 0 
ITEM: TIMESTEP
9324
ITEM: NUMBER OF ATOMS
6
ITEM: BOX BOUNDS pp pp ff
-1.0000000000000000e+01 1.0000000000000000e+01
-1.0000000000000000e+01 1.0000000000000000e+01
-2.0499999999999998e+00 2.0499999999999998e+00
ITEM: ATOMS id type x y z mux muy muz 
1 1 0.135001 3.16958 -0.0154339 0 0 0 
2 2 -2.11425 0.0504336 -0.00905889 0 0 0 
3 2 -0.0980346 0.070658 -0.0110756 0 0 0 
4 3 -2.5 0 0 2 0 0 
5 3 0 2.5 0 0 2 0 
6 4 0 0 0 0 0 0 
ITEM: TIMESTEP
9657
ITEM: NUMBER OF ATOMS
6
ITEM: BOX BOUNDS pp pp ff
-1.0000000000000000e+01 1.0000000000000000e+01
-1.0000000000000000e+01 1.0000000000000000e+01
-2.0499999999999998e+00 2.0499999999999998e+00
ITEM: ATOMS id type x y z mux muy muz 
1 1 0.11766 3.12964 -0.00702579 -0 -0 0 
2 2 -2.11961 0.0829197 0.0151013 -0 -0 0 
3 2 -0.000730449 0.0441604 -0.0228614 -0 -0 0 
4 3 -2.5 0 0 2 0 0 
5 3 0 2.5 0 0 2 0 
6 4 0 0 0 0 0 0 
ITEM: TIMESTEP
9990
ITEM: NUMBER OF ATOMS
6
ITEM: BOX BOUNDS pp pp ff
-1.0000000000000000e+01 1.0000000000000000e+01
-1.0000000000000000e+01 1.0000000000000000e+01
-2.0499999999999998e+00 2.0499999999999998e+00
ITEM: ATOMS id type x y z mux muy muz 
1 1 0.121341 3.16048 0.0258806 0 -0 0 
2 2 -2.13713 0.0673473 -0.0297437 0 -0 0 
3 2 -0.0330587 0.0933377 -0.0374532 0 -0 0 
4 3 -2.5 0 0 2 0 0 
5 3 0 2.5 0 0 2 0 
6 4 0 0 0 0 0 0 
ITEM: TIMESTEP
10323
ITEM: NUMBER OF ATOMS
6
ITEM: BOX BOUNDS pp pp ff
-1.0000000000000000e+01 1.0000000000000000e+01
-1.0000000000000000e+01 1.0000000000000000e+01
-2.0499999999999998e+00 2.0499999999999998e+00
ITEM: ATOMS id type x y z mux muy muz 
1 1 0.163553 3.04477 1.01721e-05 0 0 0 
2 2 -2.10296 0.0109362 0.0332252 0 0 0 
3 2 0.0250999 0.00468578 -0.0113235 0 0 0 
4 3 -2.5 0 0 2 0 0 
5 3 0 2.5 0 0 2 0 
6 4 0 0 0 0 0 0 
ITEM: TIMESTEP
10656
ITEM: NUMBER OF ATOMS
6
ITEM: BOX BOUNDS pp pp ff
-1.0000000000000000e+01 1.0000000000000000e+01
-1.0000000000000000e+01 1.0000000000000000e+01
-2.0499999999999998e+00 2.0499999999999998e+00
ITEM: ATOMS id type x y z mux muy muz 
1 1 0.124781 3.07348 -0.0339047 -0 -0 0 
2 2 -2.1539 -0.0347317 0.0356907 -0 -0 0 
3 2 0.189456 -0.00388294 -0.0111458 -0 -0 0 
4 3 -2.5 0 0 2 0 0 
5 3 0 2.5 0 0 2 0 
6 4 0 0 0 0 0 0 
ITEM: TIMESTEP
10989
ITEM: NUMBER OF ATOMS
6
ITEM: BOX BOUNDS pp pp ff
-1.0000000000000000e+01 1.0000000000000000e+01
-1.0000000000000000e+01 1.0000000000000000e+01
-2.0499999999999998e+00 2.0499999999999998e+00
ITEM: ATOMS id type x y z mux muy muz 
1 1 0.141626 3.01879 -0.0245143 0 -0 0 
2 2 -2.14174 -0.0490986 -0.0480663 0 -0 0 
3 2 0.131732 -0.014584 0.00895416 0 -0 0 
4 3 -2.5 0 0 2 0 0 
5 3 0 2.5 0 0 2 0 
6 4 0 0 0 0 0 0 
ITEM: TIMESTEP
11322
ITEM: NUMBER OF ATOMS
6
ITEM: BOX BOUNDS pp pp ff
-1.0000000000000000e+01 1.0000000000000000e+01
-1.0000000000000000e+01 1.0000000000000000e+01
-2.0499999999999998e+00 2.0499999999999998e+00
ITEM: ATOMS id type x y z mux muy muz 
1 1 0.0719381 3.00621 0.0520177 0 0 0 
2 2 -2.05231 -0.126996 0.000848801 0 0 0 
3 2 0.132804 -0.0879526 -0.0204307 0 0 0 
4 3 -2.5 0 0 2 0 0 
5 3 0 2.5 0 0 2 0 
6 4 0 0 0 0 0 0 
ITEM: TIMESTEP
11655
ITEM: NUMBER OF ATOMS
6
ITEM: BOX BOUNDS pp pp ff
-1.0000000000000000e+01 1.0000000000000000e+01
-1.0000000000000000e+01 1.0000000000000000e+01
-2.0499999999999998e+00 2.0499999999999998e+00
ITEM: ATOMS id type x y z mux muy muz 
1 1 0.0591933 2.96452 0.0324983 -0 -0 0 
2 2 -2.11092 -0.0959097 -0.00443416 -0 -0 0 
3 2 0.135509 -0.159939 -0.0145799 -0 -0 0 
4 3 -2.5 0 0 2 0 0 
5 3 0 2.5 0 0 2 0 
6 4 0 0 0 0 0 0 
ITEM: TIMESTEP
11988
ITEM: NUMBER OF ATOMS
6
ITEM: BOX BOUNDS pp pp ff
-1.0000000000000000e+01 1.0000000000000000e+01
-1.0000000000000000e+01 1.0000000000000000e+01
-2.0499999999999998e+00 2.0499999999999998e+00
ITEM: ATOMS id type x y z mux muy muz 
1 1 0.00143344 3.06869 0.0196292 0 -0 0 
2 2 -2.12943 -0.0445752 0.04815 0 -0 0 
3 2 0.122133 -0.11177 -0.001999 0 -0 0 
4 3 -2.5 0 0 2 0 0 
5 3 0 2.5 0 0 2 0 
6 4 0 0 0 0 0 0 
ITEM: TIMESTEP
12321
ITEM: NUMBER OF ATOMS
6
ITEM: BOX BOUNDS pp pp ff
-1.0000000000000000e+01 1.0000000000000000e+01
-1.0000000000000000e+01 1.0000000000000000e+01
-2.0499999999999998e+00 2.0499999999999998e+00
ITEM: ATOMS id type x y z mux muy muz 
1 1 -0.00448729 3.09177 -0.000222253 0 0 0 
2 2 -2.16204 -0.131216 0.0322214 0 0 0 
3 2 0.0562607 -0.123984 -0.0304226 0 0 0 
4 3 -2.5 0 0 2 0 0 
5 3 0 2.5 0 0 2 0 
6 4 0 0 0 0 0 0 
ITEM: TIMESTEP
12654
ITEM: NUMBER OF ATOMS
6
ITEM: BOX BOUNDS pp pp ff
-1.0000000000000000e+01 1.0000000000000000e+01
-1.0000000000000000e+01 1.0000000000000000e+01
-2.0499999999999998e+00 2.0499999999999998e+00
ITEM: ATOMS id type x y z mux muy muz 
1 1 0.12388 3.04744 0.0108718 -0 -0 0 
2 2 -2.20651 -0.143441 0.0515845 -0 -0 0 
3 2 0.135138 -0.113831 0.0307058 -0 -0 0 
4 3 -2.5 0 0 2 0 0 
5 3 0 2.5 0 0 2 0 
6 4 0 0 0 0 0 0 
ITEM: TIMESTEP
12987
ITEM: NUMBER OF ATOMS
6
ITEM: BOX BOUNDS pp pp ff
-1.0000000000000000e+01 1.0000000000000000e+01
-1.0000000000000000e+01 1.0000000000000000e+01
-2.0499999999999998e+00 2.0499999999999998e+00
ITEM: ATOMS id type x y z mux muy muz 
1 1 0.0266284 3.10909 0.043367 0 -0 0 
2 2 -2.26669 -0.181917 0.0171069 0 -0 0 
3 2 0.162419 -0.20705 -0.0406491 0 -0 0 
4 3 -2.5 0 0 2 0 0 
5 3 0 2.5 0 0 2 0 
6 4 0 0 0 0 0 0 
ITEM: TIMESTEP
13320
ITEM: NUMBER OF ATOMS
6
ITEM: BOX BOUNDS pp pp ff
-1.0000000000000000e+01 1.0000000000000000e+01
-1.0000000000000000e+01 1.0000000000000000e+01
-2.0499999999999998e+00 2.0499999999999998e+00
ITEM: ATOMS id type x y z mux muy muz 
1 1 0.000641704 3.0697 0.029378 0 0 0 
2 2 -2.22786 -0.112242 0.0153673 0 0 0 
3 2 0.111106 -0.142018 -0.0245626 0 0 0 
4 3 -2.5 0 0 2 0 0 
5 3 0 2.5 0 0 2 0 
6 4 0 0 0 0 0 0 
ITEM: TIMESTEP
13653
ITEM: NUMBER OF ATOMS
6
ITEM: BOX BOUNDS pp pp ff
-1.0000000000000000e+01 1.0000000000000000e+01
-1.0000000000000000e+01 1.0000000000000000e+01
-2.0499999999999998e+00 2.0499999999999998e+00
ITEM: ATOMS id type x y z mux muy muz 
1 1 -0.0443096 3.17723 0.0162946 -0 -0 0 
2 2 -2.10562 -0.0045097 0.0279342 -0 -0 0 
3 2 0.154917 -0.0398188 -0.0427661 -0 -0 0 
4 3 -2.5 0 0 2 0 0 
5 3 0 2.5 0 0 2 0 
6 4 0 0 0 0 0 0 
ITEM: TIMESTEP
13986
ITEM: NUMBER OF ATOMS
6
ITEM: BOX BOUNDS pp pp ff
-1.0000000000000000e+01 1.0000000000000000e+01
-1.0000000000000000e+01 1.0000000000000000e+01
-2.0499999999999998e+00 2.0499999999999998e+00
ITEM: ATOMS id type x y z mux muy muz 
1 1 -0.0546518 3.08806 -0.0376765 0 -0 0 
2 2 -2.09248 0.0460765 0.0206327 0 -0 0 
3 2 0.0345177 -0.0380669 0.0541528 0 -0 0 
4 3 -2.5 0 0 2 0 0 
5 3 0 2.5 0 0 2 0 
6 4 0 0 0 0 0 0 
ITEM: TIMESTEP
14319
ITEM: NUMBER OF ATOMS
6
ITEM: BOX BOUNDS pp pp ff
-1.0000000000000000e+01 1.0000000000000000e+01
-1.0000000000000000e+01 1.0000000000000000e+01
-2.0499999999999998e+00 2.0499999999999998e+00
ITEM: ATOMS id type x y z mux muy muz 
1 1 -0.0663033 3.10157 -0.0485463 0 0 0 
2 2 -2.12846 0.0112025 -0.0334207 0 0 0 
3 2 0.0769156 -0.109725 -0.0314089 0 0 0 
4 3 -2.5 0 0 2 0 0 
5 3 0 2.5 0 0 2 0 
6 4 0 0 0 0 0 0 
ITEM: TIMESTEP
14652
ITEM: NUMBER OF ATOMS
6
ITEM: BOX BOUNDS pp pp ff
-1.0000000000000000e+01 1.0000000000000000e+01
-1.0000000000000000e+01 1.0000000000000000e+01
-2.0499999999999998e+00 2.0499999999999998e+00
ITEM: ATOMS id type x y z mux muy muz 
1 1 -0.0628396 3.18019 -0.0237702 -0 -0 0 
2 2 -2.05516 -0.00648485 -0.0293103 -0 -0 0 
3 2 -0.00621861 -0.11606 -0.00823027 -0 -0 0 
4 3 -2.5 0 0 2 0 0 
5 3 0 2.5 0 0 2 0 
6 4 0 0 0 0 0 0 
ITEM: TIMESTEP
14985
ITEM: NUMBER OF ATOMS
6
ITEM: BOX BOUNDS pp pp ff
-1.0000000000000000e+01 1.0000000000000000e+01
-1.0000000000000000e+01 1.0000000000000000e+01
-2.0499999999999998e+00 2.0499999999999998e+00
ITEM: ATOMS id type x y z mux muy muz 
1 1 -0.0239823 3.24314 -0.044366 0 -0 0 
2 2 -1.98573 0.0198634 -0.0296322 0 -0 0 
3 2 0.0334167 -0.17466 -0.0241569 0 -0 0 
4 3 -2.5 0 0 2 0 0 
5 3 0 2.5 0 0 2 0 
6 4 0 0 0 0 0 0 
ITEM: TIMESTEP
15318
ITEM: NUMBER OF ATOMS
6
ITEM: BOX BOUNDS pp pp ff
-1.0000000000000000e+01 1.0000000000000000e+01
-1.0000000000000000e+01 1.0000000000000000e+01
-2.0499999999999998e+00 2.0499999999999998e+00
ITEM: ATOMS id type x y z mux muy muz 
1 1 0.0564273 3.27095 -0.0120159 0 0 0 
2 2 -2.01473 0.0526381 0.00786843 0 0 0 
3 2 0.0379935 -0.143987 -0.0445456 0 0 0 
4 3 -2.5 0 0 2 0 0 
5 3 0 2.5 0 0 2 0 
6 4 0 0 0 0 0 0 
ITEM: TIMESTEP
15651
ITEM: NUMBER OF ATOMS
6
ITEM: BOX BOUNDS pp pp ff
-1.0000000000000000e+01 1.0000000000000000e+01
-1.0000000000000000e+01 1.0000000000000000e+01
-2.0499999999999998e+00 2.0499999999999998e+00
ITEM: ATOMS id type x y z mux muy muz 
1 1 0.0607749 3.38639 -0.0417888 -0 -0 0 
2 2 -2.15039 0.0799445 0.0179691 -0 -0 0 
3 2 -0.033617 -0.13052 -0.0427495 -0 -0 0 
4 3 -2.5 0 0 2 0 0 
5 3 0 2.5 0 0 2 0 
6 4 0 0 0 0 0 0 
ITEM: TIMESTEP
15984
ITEM: NUMBER OF ATOMS
6
ITEM: BOX BOUNDS pp pp ff
-1.0000000000000000e+01 1.0000000000000000e+01
-1.0000000000000000e+01 1.0000000000000000e+01
-2.0499999999999998e+00 2.0499999999999998e+00
ITEM: ATOMS id type x y z mux muy muz 
1 1 0.205078 3.36652 -0.0214547 0 -0 0 
2 2 -2.12279 0.0633611 -0.00956806 0 -0 0 
3 2 0.0618923 -0.0755253 0.0213064 0 -0 0 
4 3 -2.5 0 0 2 0 0 
5 3 0 2.5 0 0 2 0 
6 4 0 0 0 0 0 0 
ITEM: TIMESTEP
16317
ITEM: NUMBER OF ATOMS
6
ITEM: BOX BOUNDS pp pp ff
-1.0000000000000000e+01 1.0000000000000000e+01
-1.0000000000000000e+01 1.0000000000000000e+01
-2.0499999999999998e+00 2.0499999999999998e+00
ITEM: ATOMS id type x y z mux muy muz 
1 1 0.124462 3.29502 -0.0110741 0 0 0 
2 2 -2.04392 0.00442336 -0.0495039 0 0 0 
3 2 -0.00164349 -0.110211 0.018633 0 0 0 
4 3 -2.5 0 0 2 0 0 
5 3 0 2.5 0 0 2 0 
6 4 0 0 0 0 0 0 
ITEM: TIMESTEP
16650
ITEM: NUMBER OF ATOMS
6
ITEM: BOX BOUNDS pp pp ff
-1.0000000000000000e+01 1.0000000000000000e+01
-1.0000000000000000e+01 1.0000000000000000e+01
-2.0499999999999998e+00 2.0499999999999998e+00
ITEM: ATOMS id type x y z mux muy muz 
1 1 0.127172 3.28749 -0.039144 -0 0 0 
2 2 -2.05491 -0.00815695 0.0399576 -0 0 0 
3 2 0.00756834 -0.162826 -0.00622044 -0 0 0 
4 3 -2.5 0 0 2 0 0 
5 3 0 2.5 0 0 2 0 
6 4 0 0 0 0 0 0 
ITEM: TIMESTEP
16983
ITEM: NUMBER OF ATOMS
6
ITEM: BOX BOUNDS pp pp ff
-1.0000000000000000e+01 1.0000000000000000e+01
-1.0000000000000000e+01 1.0000000000000000e+01
-2.0499999999999998e+00 2.0499999999999998e+00
ITEM: ATOMS id type x y z mux muy muz 
1 1 0.0631837 3.34629 -0.0202966 0 -0 0 
2 2 -2.01979 -0.0493279 0.0384787 0 -0 0 
3 2 0.00693937 -0.0650259 0.0214406 0 -0 0 
4 3 -2.5 0 0 2 0 0 
5 3 0 2.5 0 0 2 0 
6 4 0 0 0 0 0 0 
ITEM: TIMESTEP
17316
ITEM: NUMBER OF ATOMS
6
ITEM: BOX BOUNDS pp pp ff
-1.0000000000000000e+01 1.0000000000000000e+01
-1.0000000000000000e+01 1.0000000000000000e+01
-2.0499999999999998e+00 2.0499999999999998e+00
ITEM: ATOMS id type x y z mux muy muz 
1 1 -0.0294624 3.34173 -0.0293637 0 0 0 
2 2 -1.93128 -0.096731 0.0416562 0 0 0 
3 2 0.0862791 -0.0408041 -0.0335621 0 0 0 
4 3 -2.5 0 0 2 0 0 
5 3 0 2.5 0 0 2 0 
6 4 0 0 0 0 0 0 
ITEM: TIMESTEP
17649
ITEM: NUMBER OF ATOMS
6
ITEM: BOX BOUNDS pp pp ff
-1.0000000000000000e+01 1.0000000000000000e+01
-1.0000000000000000e+01 1.0000000000000000e+01
-2.0499999999999998e+00 2.0499999999999998e+00
ITEM: ATOMS id type x y z mux muy muz 
1 1 -0.0904142 3.30141 0.0515788 -0 0 0 
2 2 -2.06308 -0.0756911 0.0294716 -0 0 0 
3 2 0.129119 0.0728819 0.0268163 -0 0 0 
4 3 -2.5 0 0 2 0 0 
5 3 0 2.5 0 0 2 0 
6 4 0 0 0 0 0 0 
ITEM: TIMESTEP
17982
ITEM: NUMBER OF ATOMS
6
ITEM: BOX BOUNDS pp pp ff
-1.0000000000000000e+01 1.0000000000000000e+01
-1.0000000000000000e+01 1.0000000000000000e+01
-2.0499999999999998e+00 2.0499999999999998e+00
ITEM: ATOMS id type x y z mux muy muz 
1 1 -0.0747292 3.30849 -0.0547637 0 -0 0 
2 2 -2.04022 -0.170218 0.0392515 0 -0 0 
3 2 0.17566 -0.0328986 0.0321143 0 -0 0 
4 3 -2.5 0 0 2 0 0 
5 3 0 2.5 0 0 2 0 
6 4 0 0 0 0 0 0 
ITEM: TIMESTEP
18315
ITEM: NUMBER OF ATOMS
6
ITEM: BOX BOUNDS pp pp ff
-1.0000000000000000e+01 1.0000000000000000e+01
-1.0000000000000000e+01 1.0000000000000000e+01
-2.0499999999999998e+00 2.0499999999999998e+00
ITEM: ATOMS id type x y z mux muy muz 
1 1 -0.228771 3.33037 0.0552619 0 0 0 
2 2 -2.02294 -0.165919 0.0274642 0 0 0 
3 2 0.0804331 -0.028086 0.00826049 0 0 0 
4 3 -2.5 0 0 2 0 0 
5 3 0 2.5 0 0 2 0 
6 4 0 0 0 0 0 0 
ITEM: TIMESTEP
18648
ITEM: NUMBER OF ATOMS
6
ITEM: BOX BOUNDS pp pp ff
-1.0000000000000000e+01 1.0000000000000000e+01
-1.0000000000000000e+01 1.0000000000000000e+01
-2.0499999999999998e+00 2.0499999999999998e+00
ITEM: ATOMS id type x y z mux muy muz 
1 1 -0.21843 3.36831 0.00869859 -0 0 0 
2 2 -1.91939 -0.0759341 0.0486806 -0 0 0 
3 2 0.200096 -0.0253669 -0.02907 -0 0 0 
4 3 -2.5 0 0 2 0 0 
5 3 0 2.5 0 0 2 0 
6 4 0 0 0 0 0 0 
ITEM: TIMESTEP
18981
ITEM: NUMBER OF ATOMS
6
ITEM: BOX BOUNDS pp pp ff
-1.0000000000000000e+01 1.0000000000000000e+01
-1.0000000000000000e+01 1.0000000000000000e+01
-2.0499999999999998e+00 2.0499999999999998e+00
ITEM: ATOMS id type x y z mux muy muz 
1 1 -0.203002 3.38925 0.032667 0 -0 0 
2 2 -1.90354 -0.106948 -0.00363105 0 -0 0 
3 2 0.233831 -0.122464 -0.0337937 0 -0 0 
4 3 -2.5 0 0 2 0 0 
5 3 0 2.5 0 0 2 0 
6 4 0 0 0 0 0 0 
ITEM: TIMESTEP
19314
ITEM: NUMBER OF ATOMS
6
ITEM: BOX BOUNDS pp pp ff
-1.0000000000000000e+01 1.0000000000000000e+01
-1.0000000000000000e+01 1.0000000000000000e+01
-2.0499999999999998e+00 2.0499999999999998e+00
ITEM: ATOMS id type x y z mux muy muz 
1 1 -0.143771 3.43466 0.0458984 0 0 0 
2 2 -1.91169 -0.163801 -0.00815282 0 0 0 
3 2 0.138216 -0.155916 -0.0169816 0 0 0 
4 3 -2.5 0 0 2 0 0 
5 3 0 2.5 0 0 2 0 
6 4 0 0 0 0 0 0 
ITEM: TIMESTEP
19647
ITEM: NUMBER OF ATOMS
6
ITEM: BOX BOUNDS pp pp ff
-1.0000000000000000e+01 1.0000000000000000e+01
-1.0000000000000000e+01 1.0000000000000000e+01
-2.0499999999999998e+00 2.0499999999999998e+00
ITEM: ATOMS id type x y z mux muy muz 
1 1 -0.0636969 3.53735 0.0317942 -0 0 0 
2 2 -1.89696 -0.079095 0.0511068 -0 0 0 
3 2 0.166151 -0.0708383 -0.0140539 -0 0 0 
4 3 -2.5 0 0 2 0 0 
5 3 0 2.5 0 0 2 0 
6 4 0 0 0 0 0 0 
ITEM: TIMESTEP
19980
ITEM: NUMBER OF ATOMS
6
ITEM: BOX BOUNDS pp pp ff
-1.0000000000000000e+01 1.0000000000000000e+01
-1.0000000000000000e+01 1.0000000000000000e+01
-2.0499999999999998e+00 2.0499999999999998e+00
ITEM: ATOMS id type x y z mux muy muz 
1 1 -0.179613 3.4812 0.0196438 0 -0 0 
2 2 -1.9052 -0.189339 0.0169006 0 -0 0 
3 2 0.154231 -0.0521042 0.00576259 0 -0 0 
4 3 -2.5 0 0 2 0 0 
5 3 0 2.5 0 0 2 0 
6 4 0 0 0 0 0 0 
ITEM: TIMESTEP
20313
ITEM: NUMBER OF ATOMS
6
ITEM: BOX BOUNDS pp pp ff
-1.0000000000000000e+01 1.0000000000000000e+01
-1.0000000000000000e+01 1.0000000000000000e+01
-2.0499999999999998e+00 2.0499999999999998e+00
ITEM: ATOMS id type x y z mux muy muz 
1 1 -0.0728861 3.32654 -0.0428067 0 0 0 
2 2 -1.88836 -0.243331 0.0419502 0 0 0 
3 2 0.230211 -0.114659 0.0177636 0 0 0 
4 3 -2.5 0 0 2 0 0 
5 3 0 2.5 0 0 2 0 
6 4 0 0 0 0 0 0 
ITEM: TIMESTEP
20646
ITEM: NUMBER OF ATOMS
6
ITEM: BOX BOUNDS pp pp ff
-1.0000000000000000e+01 1.0000000000000000e+01
-1.0000000000000000e+01 1.0000000000000000e+01
-2.0499999999999998e+00 2.0499999999999998e+00
ITEM: ATOMS id type x y z mux muy muz 
1 1 -0.12888 3.30058 0.0316335 -0 0 0 
2 2 -1.87911 -0.195448 0.0162722 -0 0 0 
3 2 0.138308 -0.0864618 0.0505512 -0 0 0 
4 3 -2.5 0 0 2 0 0 
5 3 0 2.5 0 0 2 0 
6 4 0 0 0 0 0 0 
ITEM: TIMESTEP
20979
ITEM: NUMBER OF ATOMS
6
ITEM: BOX BOUNDS pp pp ff
-1.0000000000000000e+01 1.0000000000000000e+01
-1.0000000000000000e+01 1.0000000000000000e+01
-2.0499999999999998e+00 2.0499999999999998e+00
ITEM: ATOMS id type x y z mux muy muz 
1 1 -0.179662 3.27054 0.00370734 0 -0 0 
2 2 -1.93952 -0.183375 -0.0480431 0 -0 0 
3 2 0.0652295 -0.0992056 -0.02228 0 -0 0 
4 3 -2.5 0 0 2 0 0 
5 3 0 2.5 0 0 2 0 
6 4 0 0 0 0 0 0 
ITEM: TIMESTEP
21312
ITEM: NUMBER OF ATOMS
6
ITEM: BOX BOUNDS pp pp ff
-1.0000000000000000e+01 1.0000000000000000e+01
-1.0000000000000000e+01 1.0000000000000000e+01
-2.0499999999999998e+00 2.0499999999999998e+00
ITEM: ATOMS id type x y z mux muy muz 
1 1 -0.0997333 3.21283 0.0310792 0 0 0 
2 2 -2.03208 -0.106356 -0.0177766 0 0 0 
3 2 0.0213862 -0.141416 -0.0493735 0 0 0 
4 3 -2.5 0 0 2 0 0 
5 3 0 2.5 0 0 2 0 
6 4 0 0 0 0 0 0 
ITEM: TIMESTEP
21645
ITEM: NUMBER OF ATOMS
6
ITEM: BOX BOUNDS pp pp ff
-1.0000000000000000e+01 1.0000000000000000e+01
-1.0000000000000000e+01 1.0000000000000000e+01
-2.0499999999999998e+00 2.0499999999999998e+00
ITEM: ATOMS id type x y z mux muy muz 
1 1 -0.16782 3.30174 -0.0162065 -0 0 0 
2 2 -2.13552 -0.140678 0.0321289 -0 0 0 
3 2 -0.05475 -0.0526823 -0.0491515 -0 0 0 
4 3 -2.5 0 0 2 0 0 
5 3 0 2.5 0 0 2 0 
6 4 0 0 0 0 0 0 
ITEM: TIMESTEP
21978
ITEM: NUMBER OF ATOMS
6
ITEM: BOX BOUNDS pp pp ff
-1.0000000000000000e+01 1.0000000000000000e+01
-1.0000000000000000e+01 1.0000000000000000e+01
-2.0499999999999998e+00 2.0499999999999998e+00
ITEM: ATOMS id type x y z mux muy muz 
1 1 -0.223683 3.23276 -0.0415311 0 -0 0 
2 2 -2.13841 0.00885432 -0.0161181 0 -0 0 
3 2 -0.0687445 0.00466773 0.00562322 0 -0 0 
4 3 -2.5 0 0 2 0 0 
5 3 0 2.5 0 0 2 0 
6 4 0 0 0 0 0 0 
ITEM: TIMESTEP
22311
ITEM: NUMBER OF ATOMS
6
ITEM: BOX BOUNDS pp pp ff
-1.0000000000000000e+01 1.0000000000000000e+01
-1.0000000000000000e+01 1.0000000000000000e+01
-2.0499999999999998e+00 2.0499999999999998e+00
ITEM: ATOMS id type x y z mux muy muz 
1 1 -0.151354 3.15953 -0.0336858 0 0 0 
2 2 -2.05388 0.0980528 -0.00949488 0 0 0 
3 2 -0.00456429 0.0311287 -0.0395471 0 0 0 
4 3 -2.5 0 0 2 0 0 
5 3 0 2.5 0 0 2 0 
6 4 0 0 0 0 0 0 
ITEM: TIMESTEP
22644
ITEM: NUMBER OF ATOMS
6
ITEM: BOX BOUNDS pp pp ff
-1.0000000000000000e+01 1.0000000000000000e+01
-1.0000000000000000e+01 1.0000000000000000e+01
-2.0499999999999998e+00 2.0499999999999998e+00
ITEM: ATOMS id type x y z mux muy muz 
1 1 -0.223879 3.21925 -0.0319497 -0 0 0 
2 2 -2.10003 0.0538158 -0.0106928 -0 0 0 
3 2 -0.0948074 -0.0597162 0.0186433 -0 0 0 
4 3 -2.5 0 0 2 0 0 
5 3 0 2.5 0 0 2 0 
6 4 0 0 0 0 0 0 
ITEM: TIMESTEP
22977
ITEM: NUMBER OF ATOMS
6
ITEM: BOX BOUNDS pp pp ff
-1.0000000000000000e+01 1.0000000000000000e+01
-1.0000000000000000e+01 1.0000000000000000e+01
-2.0499999999999998e+00 2.0499999999999998e+00
ITEM: ATOMS id type x y z mux muy muz 