ITEM: TIMESTEP
0
ITEM: NUMBER OF ATOMS
6
ITEM: BOX BOUNDS pp pp ff
-1.0000000000000000e+01 1.0000000000000000e+01
-1.0000000000000000e+01 1.0000000000000000e+01
-2.0499999999999998e+00 2.0499999999999998e+00
ITEM: ATOMS id type x y z mux muy muz 
1 1 0 2.5 0 0 0 0 
2 2 -2.5 0 0 0 0 0 
3 2 0 0 0 0 0 0 
4 3 -2.5 0 0 2 0 0 
5 3 0 2.5 0 0 2 0 
6 4 0 0 0 0 0 0 
ITEM: TIMESTEP
333
ITEM: NUMBER OF ATOMS
6
ITEM: BOX BOUNDS pp pp ff
-1.0000000000000000e+01 1.0000000000000000e+01
-1.0000000000000000e+01 1.0000000000000000e+01
-2.0499999999999998e+00 2.0499999999999998e+00
ITEM: ATOMS id type x y z mux muy muz 
1 1 -0.0665459 2.99041 0.0148709 -0 0 0 
2 2 -2.39429 -0.0646687 0.000964229 -0 0 0 
3 2 0.175071 -0.377395 0.0147909 -0 0 0 
4 3 -2.5 0 0 2 0 0 
5 3 0 2.5 0 0 2 0 
6 4 0 0 0 0 0 0 
ITEM: TIMESTEP
666
ITEM: NUMBER OF ATOMS
6
ITEM: BOX BOUNDS pp pp ff
-1.0000000000000000e+01 1.0000000000000000e+01
-1.0000000000000000e+01 1.0000000000000000e+01
-2.0499999999999998e+00 2.0499999999999998e+00
ITEM: ATOMS id type x y z mux muy muz 
1 1 -0.0689677 3.01546 -0.0409625 -0 -0 0 
2 2 -2.51877 -0.0782896 0.0113237 -0 -0 0 
3 2 0.22107 -0.301964 -0.0469255 -0 -0 0 
4 3 -2.5 0 0 2 0 0 
5 3 0 2.5 0 0 2 0 
6 4 0 0 0 0 0 0 
ITEM: TIMESTEP
999
ITEM: NUMBER OF ATOMS
6
ITEM: BOX BOUNDS pp pp ff
-1.0000000000000000e+01 1.0000000000000000e+01
-1.0000000000000000e+01 1.0000000000000000e+01
-2.0499999999999998e+00 2.0499999999999998e+00
ITEM: ATOMS id type x y z mux muy muz 
1 1 -0.0348257 3.02313 0.0235014 0 -0 0 
2 2 -2.37735 -0.0384016 -0.060712 0 -0 0 
3 2 0.266195 -0.292214 0.0446865 0 -0 0 
4 3 -2.5 0 0 2 0 0 
5 3 0 2.5 0 0 2 0 
6 4 0 0 0 0 0 0 
ITEM: TIMESTEP
1332
ITEM: NUMBER OF ATOMS
6
ITEM: BOX BOUNDS pp pp ff
-1.0000000000000000e+01 1.0000000000000000e+01
-1.0000000000000000e+01 1.0000000000000000e+01
-2.0499999999999998e+00 2.0499999999999998e+00
ITEM: ATOMS id type x y z mux muy muz 
1 1 -0.039823 3.13639 0.00941336 -0 0 0 
2 2 -2.26431 -0.064801 -0.0337424 -0 0 0 
3 2 0.205236 -0.342822 -0.044936 -0 0 0 
4 3 -2.5 0 0 2 0 0 
5 3 0 2.5 0 0 2 0 
6 4 0 0 0 0 0 0 
ITEM: TIMESTEP
1665
ITEM: NUMBER OF ATOMS
6
ITEM: BOX BOUNDS pp pp ff
-1.0000000000000000e+01 1.0000000000000000e+01
-1.0000000000000000e+01 1.0000000000000000e+01
-2.0499999999999998e+00 2.0499999999999998e+00
ITEM: ATOMS id type x y z mux muy muz 
1 1 -0.0327208 3.12808 -0.0516751 -0 -0 0 
2 2 -2.24069 -0.0213873 -0.0300979 -0 -0 0 
3 2 0.251493 -0.301136 -0.0498749 -0 -0 0 
4 3 -2.5 0 0 2 0 0 
5 3 0 2.5 0 0 2 0 
6 4 0 0 0 0 0 0 
ITEM: TIMESTEP
1998
ITEM: NUMBER OF ATOMS
6
ITEM: BOX BOUNDS pp pp ff
-1.0000000000000000e+01 1.0000000000000000e+01
-1.0000000000000000e+01 1.0000000000000000e+01
-2.0499999999999998e+00 2.0499999999999998e+00
ITEM: ATOMS id type x y z mux muy muz 
1 1 -0.030858 3.25728 -0.0447901 0 -0 0 
2 2 -2.23399 0.00622123 -0.0428935 0 -0 0 
3 2 0.189309 -0.120194 -0.00940182 0 -0 0 
4 3 -2.5 0 0 2 0 0 
5 3 0 2.5 0 0 2 0 
6 4 0 0 0 0 0 0 
ITEM: TIMESTEP
2331
ITEM: NUMBER OF ATOMS
6
ITEM: BOX BOUNDS pp pp ff
-1.0000000000000000e+01 1.0000000000000000e+01
-1.0000000000000000e+01 1.0000000000000000e+01
-2.0499999999999998e+00 2.0499999999999998e+00
ITEM: ATOMS id type x y z mux muy muz 
1 1 0.0669092 3.13798 -0.014662 -0 0 0 
2 2 -2.27117 -0.0127254 -0.0311881 -0 0 0 
3 2 0.154596 -0.100408 0.0169991 -0 0 0 
4 3 -2.5 0 0 2 0 0 
5 3 0 2.5 0 0 2 0 
6 4 0 0 0 0 0 0 
ITEM: TIMESTEP
2664
ITEM: NUMBER OF ATOMS
6
ITEM: BOX BOUNDS pp pp ff
-1.0000000000000000e+01 1.0000000000000000e+01
-1.0000000000000000e+01 1.0000000000000000e+01
-2.0499999999999998e+00 2.0499999999999998e+00
ITEM: ATOMS id type x y z mux muy muz 
1 1 0.0883096 3.22617 -0.0355433 -0 -0 0 
2 2 -2.30519 -0.128367 0.0508368 -0 -0 0 
3 2 0.257912 -0.0885168 0.0377147 -0 -0 0 
4 3 -2.5 0 0 2 0 0 
5 3 0 2.5 0 0 2 0 
6 4 0 0 0 0 0 0 
ITEM: TIMESTEP
2997
ITEM: NUMBER OF ATOMS
6
ITEM: BOX BOUNDS pp pp ff
-1.0000000000000000e+01 1.0000000000000000e+01
-1.0000000000000000e+01 1.0000000000000000e+01
-2.0499999999999998e+00 2.0499999999999998e+00
ITEM: ATOMS id type x y z mux muy muz 
1 1 0.168426 3.24309 -0.0273319 0 -0 0 
2 2 -2.39883 -0.0456249 0.0535998 0 -0 0 
3 2 0.226708 -0.0932267 0.0328084 0 -0 0 
4 3 -2.5 0 0 2 0 0 
5 3 0 2.5 0 0 2 0 
6 4 0 0 0 0 0 0 
ITEM: TIMESTEP
3330
ITEM: NUMBER OF ATOMS
6
ITEM: BOX BOUNDS pp pp ff
-1.0000000000000000e+01 1.0000000000000000e+01
-1.0000000000000000e+01 1.0000000000000000e+01
-2.0499999999999998e+00 2.0499999999999998e+00
ITEM: ATOMS id type x y z mux muy muz 
1 1 0.25708 3.21721 0.0405399 -0 0 0 
2 2 -2.4133 -0.0484693 -0.0269451 -0 0 0 
3 2 0.147746 0.000248318 0.031622 -0 0 0 
4 3 -2.5 0 0 2 0 0 
5 3 0 2.5 0 0 2 0 
6 4 0 0 0 0 0 0 
ITEM: TIMESTEP
3663
ITEM: NUMBER OF ATOMS
6
ITEM: BOX BOUNDS pp pp ff
-1.0000000000000000e+01 1.0000000000000000e+01
-1.0000000000000000e+01 1.0000000000000000e+01
-2.0499999999999998e+00 2.0499999999999998e+00
ITEM: ATOMS id type x y z mux muy muz 
1 1 0.299425 3.27479 0.0152305 -0 -0 0 
2 2 -2.4444 -0.0195473 0.0506505 -0 -0 0 
3 2 0.14212 0.0272975 -0.0345957 -0 -0 0 
4 3 -2.5 0 0 2 0 0 
5 3 0 2.5 0 0 2 0 
6 4 0 0 0 0 0 0 
ITEM: TIMESTEP
3996
ITEM: NUMBER OF ATOMS
6
ITEM: BOX BOUNDS pp pp ff
-1.0000000000000000e+01 1.0000000000000000e+01
-1.0000000000000000e+01 1.0000000000000000e+01
-2.0499999999999998e+00 2.0499999999999998e+00
ITEM: ATOMS id type x y z mux muy muz 
1 1 0.283493 3.26296 0.000237242 0 -0 0 
2 2 -2.42574 0.0411674 0.0319402 0 -0 0 
3 2 0.12005 0.00457506 0.0210435 0 -0 0 
4 3 -2.5 0 0 2 0 0 
5 3 0 2.5 0 0 2 0 
6 4 0 0 0 0 0 0 
ITEM: TIMESTEP
4329
ITEM: NUMBER OF ATOMS
6
ITEM: BOX BOUNDS pp pp ff
-1.0000000000000000e+01 1.0000000000000000e+01
-1.0000000000000000e+01 1.0000000000000000e+01
-2.0499999999999998e+00 2.0499999999999998e+00
ITEM: ATOMS id type x y z mux muy muz 
1 1 0.228302 3.23261 -0.0528802 -0 0 0 
2 2 -2.48868 0.0104289 -0.0143064 -0 0 0 
3 2 0.24178 -0.0836476 0.0236299 -0 0 0 
4 3 -2.5 0 0 2 0 0 
5 3 0 2.5 0 0 2 0 
6 4 0 0 0 0 0 0 
ITEM: TIMESTEP
4662
ITEM: NUMBER OF ATOMS
6
ITEM: BOX BOUNDS pp pp ff
-1.0000000000000000e+01 1.0000000000000000e+01
-1.0000000000000000e+01 1.0000000000000000e+01
-2.0499999999999998e+00 2.0499999999999998e+00
ITEM: ATOMS id type x y z mux muy muz 
1 1 0.229436 3.19925 -0.0110032 -0 -0 0 
2 2 -2.50381 0.0628434 -0.0274308 -0 -0 0 
3 2 0.22179 -0.14822 0.0202188 -0 -0 0 
4 3 -2.5 0 0 2 0 0 
5 3 0 2.5 0 0 2 0 
6 4 0 0 0 0 0 0 
ITEM: TIMESTEP
4995
ITEM: NUMBER OF ATOMS
6
ITEM: BOX BOUNDS pp pp ff
-1.0000000000000000e+01 1.0000000000000000e+01
-1.0000000000000000e+01 1.0000000000000000e+01
-2.0499999999999998e+00 2.0499999999999998e+00
ITEM: ATOMS id type x y z mux muy muz 
1 1 0.189765 3.19152 0.0489368 0 -0 0 
2 2 -2.53226 -0.0377978 0.0306725 0 -0 0 
3 2 0.125712 -0.157579 -0.0266796 0 -0 0 
4 3 -2.5 0 0 2 0 0 
5 3 0 2.5 0 0 2 0 
6 4 0 0 0 0 0 0 
ITEM: TIMESTEP
5328
ITEM: NUMBER OF ATOMS
6
ITEM: BOX BOUNDS pp pp ff
-1.0000000000000000e+01 1.0000000000000000e+01
-1.0000000000000000e+01 1.0000000000000000e+01
-2.0499999999999998e+00 2.0499999999999998e+00
ITEM: ATOMS id type x y z mux muy muz 
1 1 0.146019 3.04846 0.0482185 -0 0 0 
2 2 -2.64638 -0.0552777 -6.70589e-06 -0 0 0 
3 2 0.130812 -0.193503 -0.00819293 -0 0 0 
4 3 -2.5 0 0 2 0 0 
5 3 0 2.5 0 0 2 0 
6 4 0 0 0 0 0 0 
ITEM: TIMESTEP
5661
ITEM: NUMBER OF ATOMS
6
ITEM: BOX BOUNDS pp pp ff
-1.0000000000000000e+01 1.0000000000000000e+01
-1.0000000000000000e+01 1.0000000000000000e+01
-2.0499999999999998e+00 2.0499999999999998e+00
ITEM: ATOMS id type x y z mux muy muz 
1 1 0.00565408 3.00413 0.0291461 -0 -0 0 
2 2 -2.62828 -0.117321 0.00401959 -0 -0 0 
3 2 0.00028816 -0.0679563 0.0305779 -0 -0 0 
4 3 -2.5 0 0 2 0 0 
5 3 0 2.5 0 0 2 0 
6 4 0 0 0 0 0 0 
ITEM: TIMESTEP
5994
ITEM: NUMBER OF ATOMS
6
ITEM: BOX BOUNDS pp pp ff
-1.0000000000000000e+01 1.0000000000000000e+01
-1.0000000000000000e+01 1.0000000000000000e+01
-2.0499999999999998e+00 2.0499999999999998e+00
ITEM: ATOMS id type x y z mux muy muz 
1 1 0.0506471 3.01494 0.0131522 0 -0 0 
2 2 -2.73586 -0.0919497 -0.0330346 0 -0 0 
3 2 0.0173057 -0.0365369 0.0264829 0 -0 0 
4 3 -2.5 0 0 2 0 0 
5 3 0 2.5 0 0 2 0 
6 4 0 0 0 0 0 0 
ITEM: TIMESTEP
6327
ITEM: NUMBER OF ATOMS
6
ITEM: BOX BOUNDS pp pp ff
-1.0000000000000000e+01 1.0000000000000000e+01
-1.0000000000000000e+01 1.0000000000000000e+01
-2.0499999999999998e+00 2.0499999999999998e+00
ITEM: ATOMS id type x y z mux muy muz 
1 1 0.0680685 3.04358 0.0442775 -0 0 0 
2 2 -2.71597 -0.199997 0.0154469 -0 0 0 
3 2 0.0164272 0.00672012 0.0073114 -0 0 0 
4 3 -2.5 0 0 2 0 0 
5 3 0 2.5 0 0 2 0 
6 4 0 0 0 0 0 0 
ITEM: TIMESTEP
6660
ITEM: NUMBER OF ATOMS
6
ITEM: BOX BOUNDS pp pp ff
-1.0000000000000000e+01 1.0000000000000000e+01
-1.0000000000000000e+01 1.0000000000000000e+01
-2.0499999999999998e+00 2.0499999999999998e+00
ITEM: ATOMS id type x y z mux muy muz 
1 1 0.00455894 3.12964 0.014224 -0 -0 0 
2 2 -2.56472 -0.153928 -0.0530783 -0 -0 0 
3 2 0.041541 0.124021 0.0310288 -0 -0 0 
4 3 -2.5 0 0 2 0 0 
5 3 0 2.5 0 0 2 0 
6 4 0 0 0 0 0 0 
ITEM: TIMESTEP
6993
ITEM: NUMBER OF ATOMS
6
ITEM: BOX BOUNDS pp pp ff
-1.0000000000000000e+01 1.0000000000000000e+01
-1.0000000000000000e+01 1.0000000000000000e+01
-2.0499999999999998e+00 2.0499999999999998e+00
ITEM: ATOMS id type x y z mux muy muz 
1 1 0.0379233 3.11373 0.027576 0 -0 0 
2 2 -2.62017 -0.156356 -0.0197192 0 -0 0 
3 2 -0.0481672 0.117097 0.0478858 0 -0 0 
4 3 -2.5 0 0 2 0 0 
5 3 0 2.5 0 0 2 0 
6 4 0 0 0 0 0 0 
ITEM: TIMESTEP
7326
ITEM: NUMBER OF ATOMS
6
ITEM: BOX BOUNDS pp pp ff
-1.0000000000000000e+01 1.0000000000000000e+01
-1.0000000000000000e+01 1.0000000000000000e+01
-2.0499999999999998e+00 2.0499999999999998e+00
ITEM: ATOMS id type x y z mux muy muz 
1 1 0.0700883 3.17103 -0.0305267 -0 0 0 
2 2 -2.57585 -0.210559 -0.0422717 -0 0 0 
3 2 -0.0908085 0.140408 -0.0327966 -0 0 0 
4 3 -2.5 0 0 2 0 0 
5 3 0 2.5 0 0 2 0 
6 4 0 0 0 0 0 0 
ITEM: TIMESTEP
7659
ITEM: NUMBER OF ATOMS
6
ITEM: BOX BOUNDS pp pp ff
-1.0000000000000000e+01 1.0000000000000000e+01
-1.0000000000000000e+01 1.0000000000000000e+01
-2.0499999999999998e+00 2.0499999999999998e+00
ITEM: ATOMS id type x y z mux muy muz 
1 1 0.0723973 3.14017 0.0158412 -0 -0 0 
2 2 -2.49044 -0.0683334 -0.0301791 -0 -0 0 
3 2 -0.034827 0.0999647 0.0329758 -0 -0 0 
4 3 -2.5 0 0 2 0 0 
5 3 0 2.5 0 0 2 0 
6 4 0 0 0 0 0 0 
ITEM: TIMESTEP
7992
ITEM: NUMBER OF ATOMS
6
ITEM: BOX BOUNDS pp pp ff
-1.0000000000000000e+01 1.0000000000000000e+01
-1.0000000000000000e+01 1.0000000000000000e+01
-2.0499999999999998e+00 2.0499999999999998e+00
ITEM: ATOMS id type x y z mux muy muz 
1 1 0.105368 3.20906 0.049828 0 -0 0 
2 2 -2.40489 0.0660323 0.0264464 0 -0 0 
3 2 0.0479539 0.0512708 -0.00521705 0 -0 0 
4 3 -2.5 0 0 2 0 0 
5 3 0 2.5 0 0 2 0 
6 4 0 0 0 0 0 0 
ITEM: TIMESTEP
8325
ITEM: NUMBER OF ATOMS
6
ITEM: BOX BOUNDS pp pp ff
-1.0000000000000000e+01 1.0000000000000000e+01
-1.0000000000000000e+01 1.0000000000000000e+01
-2.0499999999999998e+00 2.0499999999999998e+00
ITEM: ATOMS id type x y z mux muy muz 
1 1 0.0585191 3.29234 0.0621765 0 0 0 
2 2 -2.37322 0.0510453 0.0410317 0 0 0 
3 2 0.0327356 0.0314172 -0.0472067 0 0 0 
4 3 -2.5 0 0 2 0 0 
5 3 0 2.5 0 0 2 0 
6 4 0 0 0 0 0 0 
ITEM: TIMESTEP
8658
ITEM: NUMBER OF ATOMS
6
ITEM: BOX BOUNDS pp pp ff
-1.0000000000000000e+01 1.0000000000000000e+01
-1.0000000000000000e+01 1.0000000000000000e+01
-2.0499999999999998e+00 2.0499999999999998e+00
ITEM: ATOMS id type x y z mux muy muz 
1 1 0.0840429 3.22526 0.0413771 -0 -0 0 
2 2 -2.42733 0.0354366 0.0401589 -0 -0 0 
3 2 -0.0100723 -0.0302935 0.0434778 -0 -0 0 
4 3 -2.5 0 0 2 0 0 
5 3 0 2.5 0 0 2 0 
6 4 0 0 0 0 0 0 
ITEM: TIMESTEP
8991
ITEM: NUMBER OF ATOMS
6
ITEM: BOX BOUNDS pp pp ff
-1.0000000000000000e+01 1.0000000000000000e+01
-1.0000000000000000e+01 1.0000000000000000e+01
-2.0499999999999998e+00 2.0499999999999998e+00
ITEM: ATOMS id type x y z mux muy muz 
1 1 -0.023659 3.22596 -0.0195994 0 -0 0 
2 2 -2.46803 0.126996 0.0145193 0 -0 0 
3 2 0.004146 0.0060543 0.0544734 0 -0 0 
4 3 -2.5 0 0 2 0 0 
5 3 0 2.5 0 0 2 0 
6 4 0 0 0 0 0 0 
ITEM: TIMESTEP
9324
ITEM: NUMBER OF ATOMS
6
ITEM: BOX BOUNDS pp pp ff
-1.0000000000000000e+01 1.0000000000000000e+01
-1.0000000000000000e+01 1.0000000000000000e+01
-2.0499999999999998e+00 2.0499999999999998e+00
ITEM: ATOMS id type x y z mux muy muz 
1 1 0.0702939 3.21743 0.0166859 0 0 0 
2 2 -2.53677 0.0597396 -0.0490052 0 0 0 
3 2 3.1129e-05 0.0480399 0.0574979 0 0 0 
4 3 -2.5 0 0 2 0 0 
5 3 0 2.5 0 0 2 0 
6 4 0 0 0 0 0 0 
ITEM: TIMESTEP
9657
ITEM: NUMBER OF ATOMS
6
ITEM: BOX BOUNDS pp pp ff
-1.0000000000000000e+01 1.0000000000000000e+01
-1.0000000000000000e+01 1.0000000000000000e+01
-2.0499999999999998e+00 2.0499999999999998e+00
ITEM: ATOMS id type x y z mux muy muz 
1 1 0.119032 3.12307 -0.0118275 -0 -0 0 
2 2 -2.5002 0.0578762 0.00056127 -0 -0 0 
3 2 -0.00464495 -0.0096172 -0.00876255 -0 -0 0 
4 3 -2.5 0 0 2 0 0 
5 3 0 2.5 0 0 2 0 
6 4 0 0 0 0 0 0 
ITEM: TIMESTEP
9990
ITEM: NUMBER OF ATOMS
6
ITEM: BOX BOUNDS pp pp ff
-1.0000000000000000e+01 1.0000000000000000e+01
-1.0000000000000000e+01 1.0000000000000000e+01
-2.0499999999999998e+00 2.0499999999999998e+00
ITEM: ATOMS id type x y z mux muy muz 
1 1 0.121183 3.06962 -0.0162383 0 -0 0 
2 2 -2.40083 0.032799 0.0343298 0 -0 0 
3 2 0.0969979 -0.142849 -0.0131552 0 -0 0 
4 3 -2.5 0 0 2 0 0 
5 3 0 2.5 0 0 2 0 
6 4 0 0 0 0 0 0 
ITEM: TIMESTEP
10323
ITEM: NUMBER OF ATOMS
6
ITEM: BOX BOUNDS pp pp ff
-1.0000000000000000e+01 1.0000000000000000e+01
-1.0000000000000000e+01 1.0000000000000000e+01
-2.0499999999999998e+00 2.0499999999999998e+00
ITEM: ATOMS id type x y z mux muy muz 
1 1 0.187878 2.91478 0.00943189 0 0 0 
2 2 -2.29926 -0.0526958 0.00209024 0 0 0 
3 2 0.0742112 -0.147108 0.0524891 0 0 0 
4 3 -2.5 0 0 2 0 0 
5 3 0 2.5 0 0 2 0 
6 4 0 0 0 0 0 0 
ITEM: TIMESTEP
10656
ITEM: NUMBER OF ATOMS
6
ITEM: BOX BOUNDS pp pp ff
-1.0000000000000000e+01 1.0000000000000000e+01
-1.0000000000000000e+01 1.0000000000000000e+01
-2.0499999999999998e+00 2.0499999999999998e+00
ITEM: ATOMS id type x y z mux muy muz 
1 1 0.105801 2.87962 0.0096091 -0 -0 0 
2 2 -2.43686 -0.143161 0.0501645 -0 -0 0 
3 2 0.031287 -0.211246 0.0437066 -0 -0 0 
4 3 -2.5 0 0 2 0 0 
5 3 0 2.5 0 0 2 0 
6 4 0 0 0 0 0 0 
ITEM: TIMESTEP
10989
ITEM: NUMBER OF ATOMS
6
ITEM: BOX BOUNDS pp pp ff
-1.0000000000000000e+01 1.0000000000000000e+01
-1.0000000000000000e+01 1.0000000000000000e+01
-2.0499999999999998e+00 2.0499999999999998e+00
ITEM: ATOMS id type x y z mux muy muz 
1 1 0.115326 2.95035 0.0233313 0 -0 0 
2 2 -2.40624 -0.0590157 0.0323724 0 -0 0 
3 2 -0.0128023 -0.205607 0.0375536 0 -0 0 
4 3 -2.5 0 0 2 0 0 
5 3 0 2.5 0 0 2 0 
6 4 0 0 0 0 0 0 
ITEM: TIMESTEP
11322
ITEM: NUMBER OF ATOMS
6
ITEM: BOX BOUNDS pp pp ff
-1.0000000000000000e+01 1.0000000000000000e+01
-1.0000000000000000e+01 1.0000000000000000e+01
-2.0499999999999998e+00 2.0499999999999998e+00
ITEM: ATOMS id type x y z mux muy muz 
1 1 -0.0610861 2.95887 0.00015067 0 0 0 
2 2 -2.37788 -0.0911111 -0.0560585 0 0 0 
3 2 0.0207178 -0.260776 0.036084 0 0 0 
4 3 -2.5 0 0 2 0 0 
5 3 0 2.5 0 0 2 0 
6 4 0 0 0 0 0 0 
ITEM: TIMESTEP
11655
ITEM: NUMBER OF ATOMS
6
ITEM: BOX BOUNDS pp pp ff
-1.0000000000000000e+01 1.0000000000000000e+01
-1.0000000000000000e+01 1.0000000000000000e+01
-2.0499999999999998e+00 2.0499999999999998e+00
ITEM: ATOMS id type x y z mux muy muz 
1 1 0.0015324 3.11806 -0.0458886 -0 -0 0 
2 2 -2.45361 -0.191672 0.045521 -0 -0 0 
3 2 -0.0345573 -0.19543 -0.0482425 -0 -0 0 
4 3 -2.5 0 0 2 0 0 
5 3 0 2.5 0 0 2 0 
6 4 0 0 0 0 0 0 
ITEM: TIMESTEP
11988
ITEM: NUMBER OF ATOMS
6
ITEM: BOX BOUNDS pp pp ff
-1.0000000000000000e+01 1.0000000000000000e+01
-1.0000000000000000e+01 1.0000000000000000e+01
-2.0499999999999998e+00 2.0499999999999998e+00
ITEM: ATOMS id type x y z mux muy muz 
1 1 -0.0687864 3.2101 -0.0113726 0 -0 0 
2 2 -2.39657 -0.190336 -0.0433487 0 -0 0 
3 2 -0.0825583 -0.227935 -0.0176827 0 -0 0 
4 3 -2.5 0 0 2 0 0 
5 3 0 2.5 0 0 2 0 
6 4 0 0 0 0 0 0 
ITEM: TIMESTEP
12321
ITEM: NUMBER OF ATOMS
6
ITEM: BOX BOUNDS pp pp ff
-1.0000000000000000e+01 1.0000000000000000e+01
-1.0000000000000000e+01 1.0000000000000000e+01
-2.0499999999999998e+00 2.0499999999999998e+00
ITEM: ATOMS id type x y z mux muy muz 
1 1 -0.0912384 3.23006 -0.000301027 0 0 0 
2 2 -2.3935 -0.0858009 -0.016114 0 0 0 
3 2 0.00398492 -0.214708 -0.00518595 0 0 0 
4 3 -2.5 0 0 2 0 0 
5 3 0 2.5 0 0 2 0 
6 4 0 0 0 0 0 0 
ITEM: TIMESTEP
12654
ITEM: NUMBER OF ATOMS
6
ITEM: BOX BOUNDS pp pp ff
-1.0000000000000000e+01 1.0000000000000000e+01
-1.0000000000000000e+01 1.0000000000000000e+01
-2.0499999999999998e+00 2.0499999999999998e+00
ITEM: ATOMS id type x y z mux muy muz 
1 1 -0.0263559 3.29193 -0.000632523 -0 -0 0 
2 2 -2.34916 -0.0684818 0.0178516 -0 -0 0 
3 2 -0.0336794 -0.272964 0.0453708 -0 -0 0 
4 3 -2.5 0 0 2 0 0 
5 3 0 2.5 0 0 2 0 
6 4 0 0 0 0 0 0 
ITEM: TIMESTEP
12987
ITEM: NUMBER OF ATOMS
6
ITEM: BOX BOUNDS pp pp ff
-1.0000000000000000e+01 1.0000000000000000e+01
-1.0000000000000000e+01 1.0000000000000000e+01
-2.0499999999999998e+00 2.0499999999999998e+00
ITEM: ATOMS id type x y z mux muy muz 
1 1 -0.026777 3.19526 -0.0323296 0 -0 0 
2 2 -2.32883 -0.0789753 0.00195495 0 -0 0 
3 2 0.10709 -0.38276 -0.0280176 0 -0 0 
4 3 -2.5 0 0 2 0 0 
5 3 0 2.5 0 0 2 0 
6 4 0 0 0 0 0 0 
ITEM: TIMESTEP
13320
ITEM: NUMBER OF ATOMS
6
ITEM: BOX BOUNDS pp pp ff
-1.0000000000000000e+01 1.0000000000000000e+01
-1.0000000000000000e+01 1.0000000000000000e+01
-2.0499999999999998e+00 2.0499999999999998e+00
ITEM: ATOMS id type x y z mux muy muz 
1 1 -0.0208722 3.09265 0.0154546 0 0 0 
2 2 -2.47981 -0.0429509 0.0109206 0 0 0 
3 2 0.159473 -0.274926 -0.0297409 0 0 0 
4 3 -2.5 0 0 2 0 0 
5 3 0 2.5 0 0 2 0 
6 4 0 0 0 0 0 0 
ITEM: TIMESTEP
13653
ITEM: NUMBER OF ATOMS
6
ITEM: BOX BOUNDS pp pp ff
-1.0000000000000000e+01 1.0000000000000000e+01
-1.0000000000000000e+01 1.0000000000000000e+01
-2.0499999999999998e+00 2.0499999999999998e+00
ITEM: ATOMS id type x y z mux muy muz 
1 1 -0.019531 3.10107 -0.0377588 -0 -0 0 
2 2 -2.41653 -0.165517 0.0552932 -0 -0 0 
3 2 0.170459 -0.276227 0.0486548 -0 -0 0 
4 3 -2.5 0 0 2 0 0 
5 3 0 2.5 0 0 2 0 
6 4 0 0 0 0 0 0 
ITEM: TIMESTEP
13986
ITEM: NUMBER OF ATOMS
6
ITEM: BOX BOUNDS pp pp ff
-1.0000000000000000e+01 1.0000000000000000e+01
-1.0000000000000000e+01 1.0000000000000000e+01
-2.0499999999999998e+00 2.0499999999999998e+00
ITEM: ATOMS id type x y z mux muy muz 
1 1 -0.0886886 3.11133 -0.0154416 0 -0 0 
2 2 -2.59004 -0.263601 -0.0122342 0 -0 0 
3 2 0.0877486 -0.303779 -0.0440005 0 -0 0 
4 3 -2.5 0 0 2 0 0 
5 3 0 2.5 0 0 2 0 
6 4 0 0 0 0 0 0 
ITEM: TIMESTEP
14319
ITEM: NUMBER OF ATOMS
6
ITEM: BOX BOUNDS pp pp ff
-1.0000000000000000e+01 1.0000000000000000e+01
-1.0000000000000000e+01 1.0000000000000000e+01
-2.0499999999999998e+00 2.0499999999999998e+00
ITEM: ATOMS id type x y z mux muy muz 
1 1 -0.116479 3.03467 0.0386035 0 0 0 
2 2 -2.59507 -0.250292 0.0110433 0 0 0 
3 2 0.0347483 -0.245558 -0.0161002 0 0 0 
4 3 -2.5 0 0 2 0 0 
5 3 0 2.5 0 0 2 0 
6 4 0 0 0 0 0 0 
ITEM: TIMESTEP
14652
ITEM: NUMBER OF ATOMS
6
ITEM: BOX BOUNDS pp pp ff
-1.0000000000000000e+01 1.0000000000000000e+01
-1.0000000000000000e+01 1.0000000000000000e+01
-2.0499999999999998e+00 2.0499999999999998e+00
ITEM: ATOMS id type x y z mux muy muz 
1 1 -0.19167 3.01784 -0.0314687 -0 -0 0 
2 2 -2.56562 -0.120679 0.00969899 -0 -0 0 
3 2 0.139097 -0.225345 0.013356 -0 -0 0 
4 3 -2.5 0 0 2 0 0 
5 3 0 2.5 0 0 2 0 
6 4 0 0 0 0 0 0 
ITEM: TIMESTEP
14985
ITEM: NUMBER OF ATOMS
6
ITEM: BOX BOUNDS pp pp ff
-1.0000000000000000e+01 1.0000000000000000e+01
-1.0000000000000000e+01 1.0000000000000000e+01
-2.0499999999999998e+00 2.0499999999999998e+00
ITEM: ATOMS id type x y z mux muy muz 
1 1 -0.229515 3.03259 -0.0508663 0 -0 0 
2 2 -2.40943 -0.0568182 -0.0216837 0 -0 0 
3 2 0.0474577 -0.187886 -0.0450935 0 -0 0 
4 3 -2.5 0 0 2 0 0 
5 3 0 2.5 0 0 2 0 
6 4 0 0 0 0 0 0 
ITEM: TIMESTEP
15318
ITEM: NUMBER OF ATOMS
6
ITEM: BOX BOUNDS pp pp ff
-1.0000000000000000e+01 1.0000000000000000e+01
-1.0000000000000000e+01 1.0000000000000000e+01
-2.0499999999999998e+00 2.0499999999999998e+00
ITEM: ATOMS id type x y z mux muy muz 
1 1 -0.139922 3.01511 -0.0560837 0 0 0 
2 2 -2.55909 -0.0990528 -0.0138137 0 0 0 
3 2 0.023027 -0.234218 0.012777 0 0 0 
4 3 -2.5 0 0 2 0 0 
5 3 0 2.5 0 0 2 0 
6 4 0 0 0 0 0 0 
ITEM: TIMESTEP
15651
ITEM: NUMBER OF ATOMS
6
ITEM: BOX BOUNDS pp pp ff
-1.0000000000000000e+01 1.0000000000000000e+01
-1.0000000000000000e+01 1.0000000000000000e+01
-2.0499999999999998e+00 2.0499999999999998e+00
ITEM: ATOMS id type x y z mux muy muz 
1 1 -0.0209111 3.01021 -0.0412677 -0 -0 0 
2 2 -2.59724 -0.0252574 0.0191806 -0 -0 0 
3 2 0.0468369 -0.218908 0.0357032 -0 -0 0 
4 3 -2.5 0 0 2 0 0 
5 3 0 2.5 0 0 2 0 
6 4 0 0 0 0 0 0 
ITEM: TIMESTEP
15984
ITEM: NUMBER OF ATOMS
6
ITEM: BOX BOUNDS pp pp ff
-1.0000000000000000e+01 1.0000000000000000e+01
-1.0000000000000000e+01 1.0000000000000000e+01
-2.0499999999999998e+00 2.0499999999999998e+00
ITEM: ATOMS id type x y z mux muy muz 
1 1 -0.00905471 2.99369 -0.0103273 0 -0 0 
2 2 -2.68862 -0.161816 0.0271641 0 -0 0 
3 2 0.050383 -0.112107 0.0139142 0 -0 0 
4 3 -2.5 0 0 2 0 0 
5 3 0 2.5 0 0 2 0 
6 4 0 0 0 0 0 0 
ITEM: TIMESTEP
16317
ITEM: NUMBER OF ATOMS
6
ITEM: BOX BOUNDS pp pp ff
-1.0000000000000000e+01 1.0000000000000000e+01
-1.0000000000000000e+01 1.0000000000000000e+01
-2.0499999999999998e+00 2.0499999999999998e+00
ITEM: ATOMS id type x y z mux muy muz 
1 1 -0.0247115 3.01071 0.00664874 0 0 0 
2 2 -2.69982 -0.0514486 0.0348907 0 0 0 
3 2 -0.0662886 0.0124508 0.0127341 0 0 0 
4 3 -2.5 0 0 2 0 0 
5 3 0 2.5 0 0 2 0 
6 4 0 0 0 0 0 0 
ITEM: TIMESTEP
16650
ITEM: NUMBER OF ATOMS
6
ITEM: BOX BOUNDS pp pp ff
-1.0000000000000000e+01 1.0000000000000000e+01
-1.0000000000000000e+01 1.0000000000000000e+01
-2.0499999999999998e+00 2.0499999999999998e+00
ITEM: ATOMS id type x y z mux muy muz 
1 1 -0.0580813 3.00329 0.0392379 -0 0 0 
2 2 -2.71743 -0.102978 0.00368713 -0 0 0 
3 2 -0.0211232 -0.0069091 0.0527532 -0 0 0 
4 3 -2.5 0 0 2 0 0 
5 3 0 2.5 0 0 2 0 
6 4 0 0 0 0 0 0 
ITEM: TIMESTEP
16983
ITEM: NUMBER OF ATOMS
6
ITEM: BOX BOUNDS pp pp ff
-1.0000000000000000e+01 1.0000000000000000e+01
-1.0000000000000000e+01 1.0000000000000000e+01
-2.0499999999999998e+00 2.0499999999999998e+00
ITEM: ATOMS id type x y z mux muy muz 
1 1 -0.0633865 3.04581 0.0517272 0 -0 0 
2 2 -2.65836 -0.208383 -0.0476246 0 -0 0 
3 2 0.0163533 -0.0327871 -0.0414547 0 -0 0 
4 3 -2.5 0 0 2 0 0 
5 3 0 2.5 0 0 2 0 
6 4 0 0 0 0 0 0 
ITEM: TIMESTEP
17316
ITEM: NUMBER OF ATOMS
6
ITEM: BOX BOUNDS pp pp ff
-1.0000000000000000e+01 1.0000000000000000e+01
-1.0000000000000000e+01 1.0000000000000000e+01
-2.0499999999999998e+00 2.0499999999999998e+00
ITEM: ATOMS id type x y z mux muy muz 
1 1 0.0949719 3.04904 0.0543227 0 0 0 
2 2 -2.63767 -0.2045 -0.0462457 0 0 0 
3 2 -0.0129838 0.0457973 -0.0296883 0 0 0 
4 3 -2.5 0 0 2 0 0 
5 3 0 2.5 0 0 2 0 
6 4 0 0 0 0 0 0 
ITEM: TIMESTEP
17649
ITEM: NUMBER OF ATOMS
6
ITEM: BOX BOUNDS pp pp ff
-1.0000000000000000e+01 1.0000000000000000e+01
-1.0000000000000000e+01 1.0000000000000000e+01
-2.0499999999999998e+00 2.0499999999999998e+00
ITEM: ATOMS id type x y z mux muy muz 
1 1 0.111138 3.06081 -0.0413197 -0 0 0 
2 2 -2.59695 -0.0925204 -0.0245314 -0 0 0 
3 2 0.041621 0.0417998 -0.0339468 -0 0 0 
4 3 -2.5 0 0 2 0 0 
5 3 0 2.5 0 0 2 0 
6 4 0 0 0 0 0 0 
ITEM: TIMESTEP
17982
ITEM: NUMBER OF ATOMS
6
ITEM: BOX BOUNDS pp pp ff
-1.0000000000000000e+01 1.0000000000000000e+01
-1.0000000000000000e+01 1.0000000000000000e+01
-2.0499999999999998e+00 2.0499999999999998e+00
ITEM: ATOMS id type x y z mux muy muz 
1 1 0.00527086 2.95637 0.0477444 0 -0 0 
2 2 -2.51303 -0.119263 -0.0221739 0 -0 0 
3 2 -0.128738 -0.0601255 0.0116622 0 -0 0 
4 3 -2.5 0 0 2 0 0 
5 3 0 2.5 0 0 2 0 
6 4 0 0 0 0 0 0 
ITEM: TIMESTEP
18315
ITEM: NUMBER OF ATOMS
6
ITEM: BOX BOUNDS pp pp ff
-1.0000000000000000e+01 1.0000000000000000e+01
-1.0000000000000000e+01 1.0000000000000000e+01
-2.0499999999999998e+00 2.0499999999999998e+00
ITEM: ATOMS id type x y z mux muy muz 
1 1 -0.0142127 2.95018 0.0389765 0 0 0 
2 2 -2.51057 -0.174813 0.00790254 0 0 0 
3 2 -0.257699 -0.0772891 0.0466294 0 0 0 
4 3 -2.5 0 0 2 0 0 
5 3 0 2.5 0 0 2 0 
6 4 0 0 0 0 0 0 
ITEM: TIMESTEP
18648
ITEM: NUMBER OF ATOMS
6
ITEM: BOX BOUNDS pp pp ff
-1.0000000000000000e+01 1.0000000000000000e+01
-1.0000000000000000e+01 1.0000000000000000e+01
-2.0499999999999998e+00 2.0499999999999998e+00
ITEM: ATOMS id type x y z mux muy muz 
1 1 -0.0603863 2.91257 0.0186533 -0 0 0 
2 2 -2.60179 -0.143308 0.0227913 -0 0 0 
3 2 -0.199075 -0.165866 0.0100107 -0 0 0 
4 3 -2.5 0 0 2 0 0 
5 3 0 2.5 0 0 2 0 
6 4 0 0 0 0 0 0 
ITEM: TIMESTEP
18981
ITEM: NUMBER OF ATOMS
6
ITEM: BOX BOUNDS pp pp ff
-1.0000000000000000e+01 1.0000000000000000e+01
-1.0000000000000000e+01 1.0000000000000000e+01
-2.0499999999999998e+00 2.0499999999999998e+00
ITEM: ATOMS id type x y z mux muy muz 
1 1 -0.0194187 2.88443 -0.0112795 0 -0 0 
2 2 -2.65488 -0.0571685 -0.011386 0 -0 0 
3 2 -0.226864 -0.21603 -0.0356104 0 -0 0 
4 3 -2.5 0 0 2 0 0 
5 3 0 2.5 0 0 2 0 
6 4 0 0 0 0 0 0 
ITEM: TIMESTEP
19314
ITEM: NUMBER OF ATOMS
6
ITEM: BOX BOUNDS pp pp ff
-1.0000000000000000e+01 1.0000000000000000e+01
-1.0000000000000000e+01 1.0000000000000000e+01
-2.0499999999999998e+00 2.0499999999999998e+00
ITEM: ATOMS id type x y z mux muy muz 
1 1 -0.0361086 2.92515 -0.0108205 0 0 0 
2 2 -2.68016 -0.0677635 0.00260285 0 0 0 
3 2 -0.0941348 -0.223037 -0.0136373 0 0 0 
4 3 -2.5 0 0 2 0 0 
5 3 0 2.5 0 0 2 0 
6 4 0 0 0 0 0 0 
ITEM: TIMESTEP
19647
ITEM: NUMBER OF ATOMS
6
ITEM: BOX BOUNDS pp pp ff
-1.0000000000000000e+01 1.0000000000000000e+01
-1.0000000000000000e+01 1.0000000000000000e+01
-2.0499999999999998e+00 2.0499999999999998e+00
ITEM: ATOMS id type x y z mux muy muz 
1 1 0.0121651 2.81953 0.0483047 -0 0 0 
2 2 -2.66869 -0.113913 -0.00892439 -0 0 0 
3 2 -0.113487 -0.271162 -0.0190263 -0 0 0 
4 3 -2.5 0 0 2 0 0 
5 3 0 2.5 0 0 2 0 
6 4 0 0 0 0 0 0 
ITEM: TIMESTEP
19980
ITEM: NUMBER OF ATOMS
6
ITEM: BOX BOUNDS pp pp ff
-1.0000000000000000e+01 1.0000000000000000e+01
-1.0000000000000000e+01 1.0000000000000000e+01
-2.0499999999999998e+00 2.0499999999999998e+00
ITEM: ATOMS id type x y z mux muy muz 
1 1 0.0840623 2.90041 -0.0234686 0 -0 0 
2 2 -2.64864 -0.0883804 -0.0476124 0 -0 0 
3 2 -0.0563278 -0.155432 -0.034049 0 -0 0 
4 3 -2.5 0 0 2 0 0 
5 3 0 2.5 0 0 2 0 
6 4 0 0 0 0 0 0 
ITEM: TIMESTEP
20313
ITEM: NUMBER OF ATOMS
6
ITEM: BOX BOUNDS pp pp ff
-1.0000000000000000e+01 1.0000000000000000e+01
-1.0000000000000000e+01 1.0000000000000000e+01
-2.0499999999999998e+00 2.0499999999999998e+00
ITEM: ATOMS id type x y z mux muy muz 
1 1 0.112891 2.92287 -0.015753 0 0 0 
2 2 -2.57236 -0.0398792 0.0448294 0 0 0 
3 2 -0.0481513 -0.112476 0.014174 0 0 0 
4 3 -2.5 0 0 2 0 0 
5 3 0 2.5 0 0 2 0 
6 4 0 0 0 0 0 0 
ITEM: TIMESTEP
20646
ITEM: NUMBER OF ATOMS
6
ITEM: BOX BOUNDS pp pp ff
-1.0000000000000000e+01 1.0000000000000000e+01
-1.0000000000000000e+01 1.0000000000000000e+01
-2.0499999999999998e+00 2.0499999999999998e+00
ITEM: ATOMS id type x y z mux muy muz 
1 1 0.132882 2.91507 0.0415675 -0 0 0 
2 2 -2.60247 -0.0926682 -0.00905292 -0 0 0 
3 2 -0.0201876 -0.160162 0.0450494 -0 0 0 
4 3 -2.5 0 0 2 0 0 
5 3 0 2.5 0 0 2 0 
6 4 0 0 0 0 0 0 
ITEM: TIMESTEP
20979
ITEM: NUMBER OF ATOMS
6
ITEM: BOX BOUNDS pp pp ff
-1.0000000000000000e+01 1.0000000000000000e+01
-1.0000000000000000e+01 1.0000000000000000e+01
-2.0499999999999998e+00 2.0499999999999998e+00
ITEM: ATOMS id type x y z mux muy muz 
1 1 0.0290099 3.01904 0.0348585 0 -0 0 
2 2 -2.61122 -0.0117865 0.0142969 0 -0 0 
3 2 -0.0181247 -0.0623845 0.0294811 0 -0 0 
4 3 -2.5 0 0 2 0 0 
5 3 0 2.5 0 0 2 0 
6 4 0 0 0 0 0 0 
ITEM: TIMESTEP
21312
ITEM: NUMBER OF ATOMS
6
ITEM: BOX BOUNDS pp pp ff
-1.0000000000000000e+01 1.0000000000000000e+01
-1.0000000000000000e+01 1.0000000000000000e+01
-2.0499999999999998e+00 2.0499999999999998e+00
ITEM: ATOMS id type x y z mux muy muz 
1 1 0.0261842 3.08769 -0.051263 0 0 0 
2 2 -2.60954 0.0654454 0.0493124 0 0 0 
3 2 0.0311658 -0.0882114 0.0416768 0 0 0 
4 3 -2.5 0 0 2 0 0 
5 3 0 2.5 0 0 2 0 
6 4 0 0 0 0 0 0 
ITEM: TIMESTEP
21645
ITEM: NUMBER OF ATOMS
6
ITEM: BOX BOUNDS pp pp ff
-1.0000000000000000e+01 1.0000000000000000e+01
-1.0000000000000000e+01 1.0000000000000000e+01
-2.0499999999999998e+00 2.0499999999999998e+00
ITEM: ATOMS id type x y z mux muy muz 
1 1 -0.0806716 3.00216 -0.0366865 -0 0 0 
2 2 -2.56505 0.0752555 0.00257801 -0 0 0 
3 2 0.0476207 -0.0701771 0.0031824 -0 0 0 
4 3 -2.5 0 0 2 0 0 
5 3 0 2.5 0 0 2 0 
6 4 0 0 0 0 0 0 
ITEM: TIMESTEP
21978
ITEM: NUMBER OF ATOMS
6
ITEM: BOX BOUNDS pp pp ff
-1.0000000000000000e+01 1.0000000000000000e+01
-1.0000000000000000e+01 1.0000000000000000e+01
-2.0499999999999998e+00 2.0499999999999998e+00
ITEM: ATOMS id type x y z mux muy muz 
1 1 -0.178207 3.05599 -0.0133615 0 -0 0 
2 2 -2.62419 0.0337545 -0.0456256 0 -0 0 
3 2 0.0823356 -0.0514918 -0.012403 0 -0 0 
4 3 -2.5 0 0 2 0 0 
5 3 0 2.5 0 0 2 0 
6 4 0 0 0 0 0 0 
ITEM: TIMESTEP
22311
ITEM: NUMBER OF ATOMS
6
ITEM: BOX BOUNDS pp pp ff
-1.0000000000000000e+01 1.0000000000000000e+01
-1.0000000000000000e+01 1.0000000000000000e+01
-2.0499999999999998e+00 2.0499999999999998e+00
ITEM: ATOMS id type x y z mux muy muz 
1 1 -0.172552 3.15188 -0.00538938 0 0 0 
2 2 -2.57574 0.124701 -0.0293512 0 0 0 
3 2 0.0629315 -0.10989 0.047774 0 0 0 
4 3 -2.5 0 0 2 0 0 
5 3 0 2.5 0 0 2 0 
6 4 0 0 0 0 0 0 
ITEM: TIMESTEP
22644
ITEM: NUMBER OF ATOMS
6
ITEM: BOX BOUNDS pp pp ff
-1.0000000000000000e+01 1.0000000000000000e+01
-1.0000000000000000e+01 1.0000000000000000e+01
-2.0499999999999998e+00 2.0499999999999998e+00
ITEM: ATOMS id type x y z mux muy muz 
1 1 -0.156542 3.27779 -0.0153504 -0 0 0 
2 2 -2.72342 -0.0282101 -0.0540912 -0 0 0 
3 2 0.0262444 -0.129599 -0.00464155 -0 0 0 
4 3 -2.5 0 0 2 0 0 
5 3 0 2.5 0 0 2 0 
6 4 0 0 0 0 0 0 
ITEM: TIMESTEP
22977
ITEM: NUMBER OF ATOMS
6
ITEM: BOX BOUNDS pp pp ff
-1.0000000000000000e+01 1.0000000000000000e+01
-1.0000000000000000e+01 1.0000000000000000e+01
-2.0499999999999998e+00 2.0499999999999998e+00
ITEM: ATOMS id type x y z mux muy muz 
1 1 -0.0415785 3.31075 0.0224665 0 -0 0 