This is the initial atom setup of bidisperse/test_traps_bibi.lmpdata
6 atoms 
4 atom types 
3 bonds 
3 bond types 
-10.0 10.0 xlo xhi 
-10.0 10.0 ylo yhi 
-2.05 2.05 zlo zhi 

Atoms

1	 1	 0.0	 2.5	 0.0	 4	 0.0017657440443523084	 0.0	 0	 0	 0	 0	 1 #atom id|type|x0|y0|z0|d|rho|m|mx|my|mz|chi|trap_id
2	 2	 -2.5	 0.0	 0.0	 2	 0.014125952354818467	 0.0	 0	 0	 0	 0	 2 #atom id|type|x0|y0|z0|d|rho|m|mx|my|mz|chi|trap_id
3	 2	 0.0	 0.0	 0.0	 2	 0.014125952354818467	 0.0	 0	 0	 0	 0	 3 #atom id|type|x0|y0|z0|d|rho|m|mx|my|mz|chi|trap_id
4	 3	 -2.5	 0.0	 0.0	 1	 1	 0	 2	 0	 0	 0	 2 #trap id|type|x0|y0|z0|1|1|0|dx|dy|dz|0|atom_id
5	 3	 0.0	 2.5	 0.0	 1	 1	 0	 0	 2	 0	 0	 1 #trap id|type|x0|y0|z0|1|1|0|dx|dy|dz|0|atom_id
6	 4	 0	 0	 0	 1	 1	 0	 0	 0	 0	 0	 3 #trap id|type|x0|y0|z0|1|1|0|dx|dy|dz|0|atom_id

Bonds

1 1 4 2
2 2 5 1
3 3 6 3

Bond Coeffs

1  0.0002999999999999999 0.0
2  0.0002999999999999999 0.0
3  0.0002999999999999999 0.0

PairIJ Coeffs

1 1 lj/cut/dipole/cut 0.01 3.563594872561357 4 20
1 2 lj/cut/dipole/cut 0.01 2.672696154421018 3 20
2 2 lj/cut/dipole/cut 0.01 1.7817974362806785 2 20
1 3 none
1 4 none
2 3 none
2 4 none
3 3 none
3 4 none
4 4 none

