units micro
atom_style hybrid sphere paramagnet bond
boundary p p f

neighbor 4.0 nsq
pair_style hybrid lj/cut/dipole/cut 1 20
bond_style biharmonic

### ---Create Particles and Region--- ###
read_data bidisperse/test.lmpdata
  orthogonal box = (-10 -10 -2.05) to (10 10 2.05)
  1 by 1 by 1 MPI processor grid
  reading atoms ...
  7 atoms
  0 = max # of 1-2 neighbors
  0 = max # of 1-3 neighbors
  0 = max # of 1-4 neighbors
  1 = max # of special neighbors
  special bonds CPU = 6.19888e-05 secs
  read_data CPU = 0.000437021 secs
group Atoms type 1
3 atoms in group Atoms

group Atoms type 2
7 atoms in group Atoms
mass * 1

### ---Variables--- ###

## magnetic field
variable Bmag atom 2.6614538978577816e-06
variable freq atom 9.999999999999999e-05
variable theta atom 1.5707963267948966
variable phi atom 0.0

variable fieldx atom v_Bmag*cos(v_freq*time*2*PI+v_phi)*sin(v_theta)
variable fieldy atom v_Bmag*sin(v_freq*time*2*PI+v_phi)*sin(v_theta)
variable fieldz atom v_Bmag*cos(v_theta)

### ---Fixes--- ###

fix 	1 Atoms setdipole v_fieldx v_fieldy v_fieldz 0
fix 	2 Atoms bd 300 0.001 561484

fix     3 Atoms addforce 0 0 -0.0
fix 	6 Atoms wall/lj126 zlo EDGE 0.01 1.7817974362806785  2 zhi EDGE 0.01 1.7817974362806785  2

### ---Run Commands--- ###
timestep 	100.0
dump 	3 all custom 333 bidisperse/test.lammpstrj id type x	 y	 z	 mux	 muy	 muz
thermo_style 	custom step atoms
thermo 	100
run 	100000
Neighbor list info ...
  update every 1 steps, delay 10 steps, check yes
  max neighbors/atom: 2000, page size: 100000
  master list distance cutoff = 24
  ghost atom cutoff = 24
  2 neighbor lists, perpetual/occasional/extra = 2 0 0
  (1) pair lj/cut/dipole/cut, perpetual, half/full from (2)
      attributes: half, newton on
      pair build: halffull/newton
      stencil: none
      bin: none
  (2) fix setdipole, perpetual
      attributes: full, newton on
      pair build: full/nsq
      stencil: none
      bin: none
Per MPI rank memory allocation (min/avg/max) = 7.321 | 7.321 | 7.321 Mbytes
Step Atoms 
       0        7 
     100        7 
     200        7 
     300        7 
     400        7 
     500        7 
     600        7 
     700        7 
     800        7 
     900        7 
    1000        7 
    1100        7 
    1200        7 
    1300        7 
    1400        7 
    1500        7 
    1600        7 
    1700        7 
    1800        7 
    1900        7 
    2000        7 
    2100        7 
    2200        7 
    2300        7 
    2400        7 
    2500        7 
    2600        7 
    2700        7 
    2800        7 
    2900        7 
    3000        7 
    3100        7 
    3200        7 
    3300        7 
    3400        7 
    3500        7 
    3600        7 
    3700        7 
    3800        7 
    3900        7 
    4000        7 
    4100        7 
    4200        7 
    4300        7 
    4400        7 
    4500        7 
    4600        7 
    4700        7 
    4800        7 
    4900        7 
    5000        7 
    5100        7 
    5200        7 
    5300        7 
    5400        7 
    5500        7 
    5600        7 
    5700        7 
    5800        7 
    5900        7 
    6000        7 
    6100        7 
    6200        7 
    6300        7 
    6400        7 
    6500        7 
    6600        7 
    6700        7 
    6800        7 
    6900        7 
    7000        7 
    7100        7 
    7200        7 
    7300        7 
    7400        7 
    7500        7 
    7600        7 
    7700        7 
    7800        7 
    7900        7 
    8000        7 
    8100        7 
    8200        7 
    8300        7 
    8400        7 
    8500        7 
    8600        7 
    8700        7 
    8800        7 
    8900        7 
    9000        7 
    9100        7 
    9200        7 
    9300        7 
    9400        7 
    9500        7 
    9600        7 
    9700        7 
    9800        7 
    9900        7 
   10000        7 
   10100        7 
   10200        7 
   10300        7 
   10400        7 
   10500        7 
   10600        7 
   10700        7 
   10800        7 
   10900        7 
   11000        7 
   11100        7 
   11200        7 
   11300        7 
   11400        7 
   11500        7 
   11600        7 
   11700        7 
   11800        7 
   11900        7 
   12000        7 
   12100        7 
   12200        7 
   12300        7 
   12400        7 
   12500        7 
   12600        7 
   12700        7 
   12800        7 
   12900        7 
   13000        7 
   13100        7 
   13200        7 
   13300        7 
   13400        7 
   13500        7 
   13600        7 
   13700        7 
   13800        7 
   13900        7 
   14000        7 
   14100        7 
   14200        7 
   14300        7 
   14400        7 
   14500        7 
   14600        7 
   14700        7 
   14800        7 
   14900        7 
   15000        7 
   15100        7 
   15200        7 
   15300        7 
   15400        7 
   15500        7 
   15600        7 
   15700        7 
   15800        7 
   15900        7 
   16000        7 
   16100        7 
   16200        7 
   16300        7 
   16400        7 
   16500        7 
   16600        7 
   16700        7 
   16800        7 
   16900        7 
   17000        7 
   17100        7 
   17200        7 
   17300        7 
   17400        7 
   17500        7 
   17600        7 
   17700        7 
   17800        7 
   17900        7 
   18000        7 
   18100        7 
   18200        7 
   18300        7 
   18400        7 
   18500        7 
   18600        7 
   18700        7 
   18800        7 
   18900        7 
   19000        7 
   19100        7 
   19200        7 
   19300        7 
   19400        7 
   19500        7 
   19600        7 
   19700        7 
   19800        7 
   19900        7 
   20000        7 
   20100        7 
   20200        7 
   20300        7 
   20400        7 
   20500        7 
   20600        7 
   20700        7 
   20800        7 
   20900        7 
   21000        7 
   21100        7 
   21200        7 
   21300        7 
   21400        7 
   21500        7 
   21600        7 
   21700        7 
   21800        7 
   21900        7 
   22000        7 
   22100        7 
   22200        7 
   22300        7 
   22400        7 
   22500        7 
   22600        7 
   22700        7 
   22800        7 
   22900        7 
   23000        7 
   23100        7 
   23200        7 
   23300        7 
   23400        7 
   23500        7 
   23600        7 
   23700        7 
   23800        7 
   23900        7 
   24000        7 
   24100        7 
   24200        7 
   24300        7 
   24400        7 
   24500        7 
   24600        7 
   24700        7 
   24800        7 
   24900        7 
   25000        7 
   25100        7 
   25200        7 
   25300        7 
   25400        7 
   25500        7 
   25600        7 
   25700        7 
   25800        7 
   25900        7 
   26000        7 
   26100        7 
   26200        7 
   26300        7 
   26400        7 
   26500        7 
   26600        7 
   26700        7 
   26800        7 
   26900        7 
   27000        7 
   27100        7 
   27200        7 
   27300        7 
   27400        7 
   27500        7 
   27600        7 
   27700        7 
   27800        7 
   27900        7 
   28000        7 
   28100        7 
   28200        7 
   28300        7 
   28400        7 
   28500        7 
   28600        7 
   28700        7 
   28800        7 
   28900        7 
   29000        7 
   29100        7 
   29200        7 
   29300        7 
   29400        7 
   29500        7 
   29600        7 
   29700        7 
   29800        7 
   29900        7 
   30000        7 
   30100        7 
   30200        7 
   30300        7 
   30400        7 
   30500        7 
   30600        7 
   30700        7 
   30800        7 
   30900        7 
   31000        7 
   31100        7 
   31200        7 
   31300        7 
   31400        7 
   31500        7 
   31600        7 
   31700        7 
   31800        7 
   31900        7 
   32000        7 
   32100        7 
   32200        7 
   32300        7 
   32400        7 
   32500        7 
   32600        7 
   32700        7 
   32800        7 
   32900        7 
   33000        7 
   33100        7 
   33200        7 
   33300        7 
   33400        7 
   33500        7 
   33600        7 
   33700        7 
   33800        7 
   33900        7 
   34000        7 
   34100        7 
   34200        7 
   34300        7 
   34400        7 
   34500        7 
   34600        7 
   34700        7 
   34800        7 
   34900        7 
   35000        7 
   35100        7 
   35200        7 
   35300        7 
   35400        7 
   35500        7 
   35600        7 
   35700        7 
   35800        7 
   35900        7 
   36000        7 
   36100        7 
   36200        7 
   36300        7 
   36400        7 
   36500        7 
   36600        7 
   36700        7 
   36800        7 
   36900        7 
   37000        7 
   37100        7 
   37200        7 
   37300        7 
   37400        7 
   37500        7 
   37600        7 
   37700        7 
   37800        7 
   37900        7 
   38000        7 
   38100        7 
   38200        7 
   38300        7 
   38400        7 
   38500        7 
   38600        7 
   38700        7 
   38800        7 
   38900        7 
   39000        7 
   39100        7 
   39200        7 
   39300        7 
   39400        7 
   39500        7 
   39600        7 
   39700        7 
   39800        7 
   39900        7 
   40000        7 
   40100        7 
   40200        7 
   40300        7 
   40400        7 
   40500        7 
   40600        7 
   40700        7 
   40800        7 
   40900        7 
   41000        7 
   41100        7 
   41200        7 
   41300        7 
   41400        7 
   41500        7 
   41600        7 
   41700        7 
   41800        7 
   41900        7 
   42000        7 
   42100        7 
   42200        7 
   42300        7 
   42400        7 
   42500        7 
   42600        7 
   42700        7 
   42800        7 
   42900        7 
   43000        7 
   43100        7 
   43200        7 
   43300        7 
   43400        7 
   43500        7 
   43600        7 
   43700        7 
   43800        7 
   43900        7 
   44000        7 
   44100        7 
   44200        7 
   44300        7 
   44400        7 
   44500        7 
   44600        7 
   44700        7 
   44800        7 
   44900        7 
   45000        7 
   45100        7 
   45200        7 
   45300        7 
   45400        7 
   45500        7 
   45600        7 
   45700        7 
   45800        7 
   45900        7 
   46000        7 
   46100        7 
   46200        7 
   46300        7 
   46400        7 
   46500        7 
   46600        7 
   46700        7 
   46800        7 
   46900        7 
   47000        7 
   47100        7 
   47200        7 
   47300        7 
   47400        7 
   47500        7 
   47600        7 
   47700        7 
   47800        7 
   47900        7 
   48000        7 
   48100        7 
   48200        7 
   48300        7 
   48400        7 
   48500        7 
   48600        7 
   48700        7 
   48800        7 
   48900        7 
   49000        7 
   49100        7 
   49200        7 
   49300        7 
   49400        7 
   49500        7 
   49600        7 
   49700        7 
   49800        7 
   49900        7 
   50000        7 
   50100        7 
   50200        7 
   50300        7 
   50400        7 
   50500        7 
   50600        7 
   50700        7 
   50800        7 
   50900        7 
   51000        7 
   51100        7 
   51200        7 
   51300        7 
   51400        7 
   51500        7 
   51600        7 
   51700        7 
   51800        7 
   51900        7 
   52000        7 
   52100        7 
   52200        7 
   52300        7 
   52400        7 
   52500        7 
   52600        7 
   52700        7 
   52800        7 
   52900        7 
   53000        7 
   53100        7 
   53200        7 
   53300        7 
   53400        7 
   53500        7 
   53600        7 
   53700        7 
   53800        7 
   53900        7 
   54000        7 
   54100        7 
   54200        7 
   54300        7 
   54400        7 
   54500        7 
   54600        7 
   54700        7 
   54800        7 
   54900        7 
   55000        7 
   55100        7 
   55200        7 
   55300        7 
   55400        7 
   55500        7 
   55600        7 
   55700        7 
   55800        7 
   55900        7 
   56000        7 
   56100        7 
   56200        7 
   56300        7 
   56400        7 
   56500        7 
   56600        7 
   56700        7 
   56800        7 
   56900        7 
   57000        7 
   57100        7 
   57200        7 
   57300        7 
   57400        7 
   57500        7 
   57600        7 
   57700        7 
   57800        7 
   57900        7 
   58000        7 
   58100        7 
   58200        7 
   58300        7 
   58400        7 
   58500        7 
   58600        7 
   58700        7 
   58800        7 
   58900        7 
   59000        7 
   59100        7 
   59200        7 
   59300        7 
   59400        7 
   59500        7 
   59600        7 
   59700        7 
   59800        7 
   59900        7 
   60000        7 
   60100        7 
   60200        7 
   60300        7 
   60400        7 
   60500        7 
   60600        7 
   60700        7 
   60800        7 
   60900        7 
   61000        7 
   61100        7 
   61200        7 
   61300        7 
   61400        7 
   61500        7 
   61600        7 
   61700        7 
   61800        7 
   61900        7 
   62000        7 
   62100        7 
   62200        7 
   62300        7 
   62400        7 
   62500        7 
   62600        7 
   62700        7 
   62800        7 
   62900        7 
   63000        7 
   63100        7 
   63200        7 
   63300        7 
   63400        7 
   63500        7 
   63600        7 
   63700        7 
   63800        7 
   63900        7 
   64000        7 
   64100        7 
   64200        7 
   64300        7 
   64400        7 
   64500        7 
   64600        7 
   64700        7 
   64800        7 
   64900        7 
   65000        7 
   65100        7 
   65200        7 
   65300        7 
   65400        7 
   65500        7 
   65600        7 
   65700        7 
   65800        7 
   65900        7 
   66000        7 
   66100        7 
   66200        7 
   66300        7 
   66400        7 
   66500        7 
   66600        7 
   66700        7 
   66800        7 
   66900        7 
   67000        7 
   67100        7 
   67200        7 
   67300        7 
   67400        7 
   67500        7 
   67600        7 
   67700        7 
   67800        7 
   67900        7 
   68000        7 
   68100        7 
   68200        7 
   68300        7 
   68400        7 
   68500        7 
   68600        7 
   68700        7 
   68800        7 
   68900        7 
   69000        7 
   69100        7 
   69200        7 
   69300        7 
   69400        7 
   69500        7 
   69600        7 
   69700        7 
   69800        7 
   69900        7 
   70000        7 
   70100        7 
   70200        7 
   70300        7 
   70400        7 
   70500        7 
   70600        7 
   70700        7 
   70800        7 
   70900        7 
   71000        7 
   71100        7 
   71200        7 
   71300        7 
   71400        7 
   71500        7 
   71600        7 
   71700        7 
   71800        7 
   71900        7 
   72000        7 
   72100        7 
   72200        7 
   72300        7 
   72400        7 
   72500        7 
   72600        7 
   72700        7 
   72800        7 
   72900        7 
   73000        7 
   73100        7 
   73200        7 
   73300        7 
   73400        7 
   73500        7 
   73600        7 
   73700        7 
   73800        7 
   73900        7 
   74000        7 
   74100        7 
   74200        7 
   74300        7 
   74400        7 
   74500        7 
   74600        7 
   74700        7 
   74800        7 
   74900        7 
   75000        7 
   75100        7 
   75200        7 
   75300        7 
   75400        7 
   75500        7 
   75600        7 
   75700        7 
   75800        7 
   75900        7 
   76000        7 
   76100        7 
   76200        7 
   76300        7 
   76400        7 
   76500        7 
   76600        7 
   76700        7 
   76800        7 
   76900        7 
   77000        7 
   77100        7 
   77200        7 
   77300        7 
   77400        7 
   77500        7 
   77600        7 
   77700        7 
   77800        7 
   77900        7 
   78000        7 
   78100        7 
   78200        7 
   78300        7 
   78400        7 
   78500        7 
   78600        7 
   78700        7 
   78800        7 
   78900        7 
   79000        7 
   79100        7 
   79200        7 
   79300        7 
   79400        7 
   79500        7 
   79600        7 
   79700        7 
   79800        7 
   79900        7 
   80000        7 
   80100        7 
   80200        7 
   80300        7 
   80400        7 
   80500        7 
   80600        7 
   80700        7 
   80800        7 
   80900        7 
   81000        7 
   81100        7 
   81200        7 
   81300        7 
   81400        7 
   81500        7 
   81600        7 
   81700        7 
   81800        7 
   81900        7 
   82000        7 
   82100        7 
   82200        7 
   82300        7 
   82400        7 
   82500        7 
   82600        7 
   82700        7 
   82800        7 
   82900        7 
   83000        7 
   83100        7 
   83200        7 
   83300        7 
   83400        7 
   83500        7 
   83600        7 
   83700        7 
   83800        7 
   83900        7 
   84000        7 
   84100        7 
   84200        7 
   84300        7 
   84400        7 
   84500        7 
   84600        7 
   84700        7 
   84800        7 
   84900        7 
   85000        7 
   85100        7 
   85200        7 
   85300        7 
   85400        7 
   85500        7 
   85600        7 
   85700        7 
   85800        7 
   85900        7 
   86000        7 
   86100        7 
   86200        7 
   86300        7 
   86400        7 
   86500        7 
   86600        7 
   86700        7 
   86800        7 
   86900        7 
   87000        7 
   87100        7 
   87200        7 
   87300        7 
   87400        7 
   87500        7 
   87600        7 
   87700        7 
   87800        7 
   87900        7 
   88000        7 
   88100        7 
   88200        7 
   88300        7 
   88400        7 
   88500        7 
   88600        7 
   88700        7 
   88800        7 
   88900        7 
   89000        7 
   89100        7 
   89200        7 
   89300        7 
   89400        7 
   89500        7 
   89600        7 
   89700        7 
   89800        7 
   89900        7 
   90000        7 
   90100        7 
   90200        7 
   90300        7 
   90400        7 
   90500        7 
   90600        7 
   90700        7 
   90800        7 
   90900        7 
   91000        7 
   91100        7 
   91200        7 
   91300        7 
   91400        7 
   91500        7 
   91600        7 
   91700        7 
   91800        7 
   91900        7 
   92000        7 
   92100        7 
   92200        7 
   92300        7 
   92400        7 
   92500        7 
   92600        7 
   92700        7 
   92800        7 
   92900        7 
   93000        7 
   93100        7 
   93200        7 
   93300        7 
   93400        7 
   93500        7 
   93600        7 
   93700        7 
   93800        7 
   93900        7 
   94000        7 
   94100        7 
   94200        7 
   94300        7 
   94400        7 
   94500        7 
   94600        7 
   94700        7 
   94800        7 
   94900        7 
   95000        7 
   95100        7 
   95200        7 
   95300        7 
   95400        7 
   95500        7 
   95600        7 
   95700        7 
   95800        7 
   95900        7 
   96000        7 
   96100        7 
   96200        7 
   96300        7 
   96400        7 
   96500        7 
   96600        7 
   96700        7 
   96800        7 
   96900        7 
   97000        7 
   97100        7 
   97200        7 
   97300        7 
   97400        7 
   97500        7 
   97600        7 
   97700        7 
   97800        7 
   97900        7 
   98000        7 
   98100        7 
   98200        7 
   98300        7 
   98400        7 
   98500        7 
   98600        7 
   98700        7 
   98800        7 
   98900        7 
   99000        7 
   99100        7 
   99200        7 
   99300        7 
   99400        7 
   99500        7 
   99600        7 
   99700        7 
   99800        7 
   99900        7 
  100000        7 
Loop time of 2.26784 on 1 procs for 100000 steps with 7 atoms

Performance: 380979233098027.312 ns/day, 0.000 hours/ns, 44094.819 timesteps/s
98.8% CPU use with 1 MPI tasks x no OpenMP threads

MPI task timing breakdown:
Section |  min time  |  avg time  |  max time  |%varavg| %total
---------------------------------------------------------------
Pair    | 0.31752    | 0.31752    | 0.31752    |   0.0 | 14.00
Bond    | 0.0056911  | 0.0056911  | 0.0056911  |   0.0 |  0.25
Neigh   | 2.2173e-05 | 2.2173e-05 | 2.2173e-05 |   0.0 |  0.00
Comm    | 0.13661    | 0.13661    | 0.13661    |   0.0 |  6.02
Output  | 0.019145   | 0.019145   | 0.019145   |   0.0 |  0.84
Modify  | 1.7583     | 1.7583     | 1.7583     |   0.0 | 77.53
Other   |            | 0.03053    |            |       |  1.35

Nlocal:    7 ave 7 max 7 min
Histogram: 1 0 0 0 0 0 0 0 0 0
Nghost:    56 ave 56 max 56 min
Histogram: 1 0 0 0 0 0 0 0 0 0
Neighs:    113 ave 113 max 113 min
Histogram: 1 0 0 0 0 0 0 0 0 0
FullNghs:  226 ave 226 max 226 min
Histogram: 1 0 0 0 0 0 0 0 0 0

Total # of neighbors = 226
Ave neighs/atom = 32.2857
Ave special neighs/atom = 0
Neighbor list builds = 3
Dangerous builds = 0
Total wall time: 0:00:02
