units micro
atom_style hybrid ellipsoid paramagnet bond
boundary f f f

neighbor 4.0 bin
neigh_modify every 1 delay 1 check yes
pair_style hybrid lj/cut/dipole/cut 1 20
bond_style biharmonic

### ---Create Particles and Region--- ###
read_data ./ring_trap_test_ring_2.lmpdata
  orthogonal box = (-75 -75 -2.5) to (75 75 2.5)
  1 by 1 by 1 MPI processor grid
  reading atoms ...
  20 atoms
  20 ellipsoids
  0 = max # of 1-2 neighbors
  0 = max # of 1-3 neighbors
  0 = max # of 1-4 neighbors
  1 = max # of special neighbors
  special bonds CPU = 1.69277e-05 secs
  read_data CPU = 0.00028801 secs
group Atoms type 1
20 atoms in group Atoms
mass * 1
group Atoms_1 type 1
20 atoms in group Atoms_1

### ---Variables--- ###

## magnetic field
variable Bmag atom 0.0
variable freq atom 9.999999999999999e-06
variable theta atom 0.2617993877991494
variable phi atom 0.0

variable fieldx atom v_Bmag*cos(v_freq*time*2*PI+v_phi)*sin(v_theta)
variable fieldy atom v_Bmag*sin(v_freq*time*2*PI+v_phi)*sin(v_theta)
variable fieldz atom v_Bmag*cos(v_theta)

## external force

# Remember that time is in microsecond
# Force is in pg*um/us^2
# k should be in pg/us^2
# r, cx and cy are in um

variable k atom 1e-3
variable cutoff atom 1

variable R1 atom 50
variable R2 atom 2

variable cx1 atom 0
variable cy1 atom 0

variable cx2 atom 54
variable cy2 atom 0

variable rho1 atom sqrt((x-v_cx1)^2+(y-v_cy1)^2)
variable ex1 atom (x-v_cx1)/v_rho1
variable ey1 atom (y-v_cy1)/v_rho1

variable dr1 atom v_rho1-v_R1

variable rho2 atom sqrt((x-v_cx2)^2+(y-v_cy2)^2)
variable ex2 atom (x-v_cx2)/v_rho2
variable ey2 atom (y-v_cy2)/v_rho2

variable dr2 atom v_rho2-v_R2

variable Fx atom -v_k*v_dr1*v_ex1*(v_dr1<v_cutoff)-v_k*v_dr2*v_ex2*(v_dr2<v_cutoff)
variable Fy atom -v_k*v_dr1*v_ey1*(v_dr1<v_cutoff)-v_k*v_dr2*v_ey2*(v_dr2<v_cutoff)
variable Fz atom 0


### ---Fixes--- ###

fix 	1 Atoms setdipole v_fieldx v_fieldy v_fieldz 0
fix 	2 Atoms bd 300 0.001 567112

fix 	3 Atoms addforce 0 0 -0.00032840115205525297
fix 	6 Atoms wall/lj126 zlo EDGE 0.01 1.7817974362806785  2 zhi EDGE 0.01 1.7817974362806785  2
fix		8 Atoms addforce v_Fx v_Fy v_Fz
### ---Run Commands--- ###
timestep 	100.0
dump 	3 all custom 333 ./ring_trap_test_ring_2.lammpstrj id type x	 y	 z
thermo_style 	custom step atoms
thermo 	100
run 	6000000
Neighbor list info ...
  update every 1 steps, delay 1 steps, check yes
  max neighbors/atom: 2000, page size: 100000
  master list distance cutoff = 24
  ghost atom cutoff = 24
  binsize = 12, bins = 13 13 1
  2 neighbor lists, perpetual/occasional/extra = 2 0 0
  (1) pair lj/cut/dipole/cut, perpetual, half/full from (2)
      attributes: half, newton on
      pair build: halffull/newton
      stencil: none
      bin: none
  (2) fix setdipole, perpetual
      attributes: full, newton on
      pair build: full/bin
      stencil: full/bin/3d
      bin: standard
Per MPI rank memory allocation (min/avg/max) = 8.376 | 8.376 | 8.376 Mbytes
Step Atoms 
       0       20 
     100       20 
     200       20 
     300       20 
     400       20 
     500       20 
     600       20 
     700       20 
     800       20 
     900       20 
    1000       20 
    1100       20 
    1200       20 
    1300       20 
    1400       20 
    1500       20 
    1600       20 
    1700       20 
    1800       20 
    1900       20 
    2000       20 
    2100       20 
    2200       20 
    2300       20 
    2400       20 
    2500       20 
    2600       20 
    2700       20 
    2800       20 
    2900       20 
    3000       20 
    3100       20 
    3200       20 
    3300       20 
    3400       20 
    3500       20 
    3600       20 
    3700       20 
    3800       20 
    3900       20 
    4000       20 
    4100       20 
    4200       20 
    4300       20 
    4400       20 
    4500       20 
    4600       20 
    4700       20 
    4800       20 
    4900       20 
    5000       20 
    5100       20 
    5200       20 
    5300       20 
    5400       20 
    5500       20 
    5600       20 
    5700       20 
    5800       20 
    5900       20 
    6000       20 
    6100       20 
    6200       20 
    6300       20 
    6400       20 
    6500       20 
    6600       20 
    6700       20 
    6800       20 
    6900       20 
    7000       20 
    7100       20 
    7200       20 
    7300       20 
    7400       20 
    7500       20 
    7600       20 
    7700       20 
    7800       20 
    7900       20 
    8000       20 
    8100       20 
    8200       20 
    8300       20 
    8400       20 
    8500       20 
    8600       20 
    8700       20 
    8800       20 
    8900       20 
    9000       20 
    9100       20 
    9200       20 
    9300       20 
    9400       20 
    9500       20 
    9600       20 
    9700       20 
    9800       20 
    9900       20 
   10000       20 
   10100       20 
   10200       20 
   10300       20 
   10400       20 
   10500       20 
   10600       20 
   10700       20 
   10800       20 
   10900       20 
   11000       20 
   11100       20 
   11200       20 
   11300       20 
   11400       20 
   11500       20 
   11600       20 
   11700       20 
   11800       20 
   11900       20 
   12000       20 
   12100       20 
   12200       20 
   12300       20 
   12400       20 
   12500       20 
   12600       20 
   12700       20 
   12800       20 
   12900       20 
   13000       20 
   13100       20 
   13200       20 
   13300       20 
   13400       20 
   13500       20 
   13600       20 
   13700       20 
   13800       20 
   13900       20 
   14000       20 
   14100       20 
   14200       20 
   14300       20 
   14400       20 
   14500       20 
   14600       20 
   14700       20 
   14800       20 
   14900       20 
   15000       20 
   15100       20 
   15200       20 
   15300       20 
   15400       20 
   15500       20 
   15600       20 
   15700       20 
   15800       20 
   15900       20 
   16000       20 
   16100       20 
   16200       20 
   16300       20 
   16400       20 
   16500       20 
   16600       20 
   16700       20 
   16800       20 
   16900       20 
   17000       20 
   17100       20 
   17200       20 
   17300       20 
   17400       20 
   17500       20 
   17600       20 
   17700       20 
   17800       20 
   17900       20 
   18000       20 
   18100       20 
   18200       20 
   18300       20 
   18400       20 
   18500       20 
   18600       20 
   18700       20 
   18800       20 
   18900       20 
   19000       20 
   19100       20 
   19200       20 
   19300       20 
   19400       20 
   19500       20 
   19600       20 
   19700       20 
   19800       20 
   19900       20 
   20000       20 
   20100       20 
   20200       20 
   20300       20 
   20400       20 
   20500       20 
   20600       20 
   20700       20 
   20800       20 
   20900       20 
   21000       20 
   21100       20 
   21200       20 
   21300       20 
   21400       20 
   21500       20 
   21600       20 
   21700       20 
   21800       20 
   21900       20 
   22000       20 
   22100       20 
   22200       20 
   22300       20 
   22400       20 
   22500       20 
   22600       20 
   22700       20 
   22800       20 
   22900       20 
   23000       20 
   23100       20 
   23200       20 
   23300       20 
   23400       20 
   23500       20 
   23600       20 
   23700       20 
   23800       20 
   23900       20 
   24000       20 
   24100       20 
   24200       20 
   24300       20 
   24400       20 
   24500       20 
   24600       20 
   24700       20 
   24800       20 
   24900       20 
   25000       20 
   25100       20 
   25200       20 
   25300       20 
   25400       20 
   25500       20 
   25600       20 
   25700       20 
   25800       20 
   25900       20 
   26000       20 
   26100       20 
   26200       20 
   26300       20 
   26400       20 
   26500       20 
   26600       20 
   26700       20 
   26800       20 
   26900       20 
   27000       20 
   27100       20 
   27200       20 
   27300       20 
   27400       20 
   27500       20 
   27600       20 
   27700       20 
   27800       20 
   27900       20 
   28000       20 
   28100       20 
   28200       20 
   28300       20 
   28400       20 
   28500       20 
   28600       20 
   28700       20 
   28800       20 
   28900       20 
   29000       20 
   29100       20 
   29200       20 
   29300       20 
   29400       20 
   29500       20 
   29600       20 
   29700       20 
   29800       20 
   29900       20 
   30000       20 
   30100       20 
   30200       20 
   30300       20 
   30400       20 
   30500       20 
   30600       20 
   30700       20 
   30800       20 
   30900       20 
   31000       20 
   31100       20 
   31200       20 
   31300       20 
   31400       20 
   31500       20 
   31600       20 
   31700       20 
   31800       20 
   31900       20 
   32000       20 
   32100       20 
   32200       20 
   32300       20 
   32400       20 
   32500       20 
   32600       20 
   32700       20 
   32800       20 
   32900       20 
   33000       20 
   33100       20 
   33200       20 
   33300       20 
   33400       20 
   33500       20 
   33600       20 
   33700       20 
   33800       20 
   33900       20 
   34000       20 
   34100       20 
   34200       20 
   34300       20 
   34400       20 
   34500       20 
   34600       20 
   34700       20 
   34800       20 
   34900       20 
   35000       20 
   35100       20 
   35200       20 
   35300       20 
   35400       20 
   35500       20 
   35600       20 
   35700       20 
   35800       20 
   35900       20 
   36000       20 
   36100       20 
   36200       20 
   36300       20 
   36400       20 
   36500       20 
   36600       20 
   36700       20 
   36800       20 
   36900       20 
   37000       20 
   37100       20 
   37200       20 
   37300       20 
   37400       20 
   37500       20 
   37600       20 
   37700       20 
   37800       20 
   37900       20 
   38000       20 
   38100       20 
   38200       20 
   38300       20 
   38400       20 
   38500       20 
   38600       20 
   38700       20 
   38800       20 
   38900       20 
   39000       20 
   39100       20 
   39200       20 
   39300       20 
   39400       20 
   39500       20 
   39600       20 
   39700       20 
   39800       20 
   39900       20 
   40000       20 
   40100       20 
   40200       20 
   40300       20 
   40400       20 
   40500       20 
   40600       20 
   40700       20 
   40800       20 
   40900       20 
   41000       20 
   41100       20 
   41200       20 
   41300       20 
   41400       20 
   41500       20 
   41600       20 
   41700       20 
   41800       20 
   41900       20 
   42000       20 
   42100       20 
   42200       20 
   42300       20 
   42400       20 
   42500       20 
   42600       20 
   42700       20 
   42800       20 
   42900       20 
   43000       20 
   43100       20 
   43200       20 
   43300       20 
   43400       20 
   43500       20 
   43600       20 
   43700       20 
   43800       20 
   43900       20 
   44000       20 
   44100       20 
   44200       20 
   44300       20 
   44400       20 
   44500       20 
   44600       20 
   44700       20 
   44800       20 
   44900       20 
   45000       20 
   45100       20 
   45200       20 
   45300       20 
   45400       20 
   45500       20 
   45600       20 
   45700       20 
   45800       20 
   45900       20 
   46000       20 
   46100       20 
   46200       20 
   46300       20 
   46400       20 
   46500       20 
   46600       20 
   46700       20 
   46800       20 
   46900       20 
   47000       20 
   47100       20 
   47200       20 
   47300       20 
   47400       20 
   47500       20 
   47600       20 
   47700       20 
   47800       20 
   47900       20 
   48000       20 
   48100       20 
   48200       20 
   48300       20 
   48400       20 
   48500       20 
   48600       20 
   48700       20 
   48800       20 
   48900       20 
   49000       20 
   49100       20 
   49200       20 
   49300       20 
   49400       20 
   49500       20 
   49600       20 
   49700       20 
   49800       20 
   49900       20 
   50000       20 
   50100       20 
   50200       20 
   50300       20 
   50400       20 
   50500       20 
   50600       20 
   50700       20 
   50800       20 
   50900       20 
   51000       20 
   51100       20 
   51200       20 
   51300       20 
   51400       20 
   51500       20 
   51600       20 
   51700       20 
   51800       20 
   51900       20 
   52000       20 
   52100       20 
   52200       20 
   52300       20 
   52400       20 
   52500       20 
   52600       20 
   52700       20 
   52800       20 
   52900       20 
   53000       20 
   53100       20 
   53200       20 
   53300       20 
   53400       20 
   53500       20 
   53600       20 
   53700       20 
   53800       20 
   53900       20 
   54000       20 
   54100       20 
   54200       20 
   54300       20 
   54400       20 
   54500       20 
   54600       20 
   54700       20 
   54800       20 
   54900       20 
   55000       20 
   55100       20 
   55200       20 
   55300       20 
   55400       20 
   55500       20 
   55600       20 
   55700       20 
   55800       20 
   55900       20 
   56000       20 
   56100       20 
   56200       20 
   56300       20 
   56400       20 
   56500       20 
   56600       20 
   56700       20 
   56800       20 
   56900       20 
   57000       20 
   57100       20 
   57200       20 
   57300       20 
   57400       20 
   57500       20 
   57600       20 
   57700       20 
   57800       20 
   57900       20 
   58000       20 
   58100       20 
   58200       20 
   58300       20 
   58400       20 
   58500       20 
   58600       20 
   58700       20 
   58800       20 
   58900       20 
   59000       20 
   59100       20 
   59200       20 
   59300       20 
   59400       20 
   59500       20 
   59600       20 
   59700       20 
   59800       20 
   59900       20 
   60000       20 
   60100       20 
   60200       20 
   60300       20 
   60400       20 
   60500       20 
   60600       20 
   60700       20 
   60800       20 
   60900       20 
   61000       20 
   61100       20 
   61200       20 
   61300       20 
   61400       20 
   61500       20 
   61600       20 
   61700       20 
   61800       20 
   61900       20 
   62000       20 
   62100       20 
   62200       20 
   62300       20 
   62400       20 
   62500       20 
   62600       20 
   62700       20 
   62800       20 
   62900       20 
   63000       20 
   63100       20 
   63200       20 
   63300       20 
   63400       20 
   63500       20 
   63600       20 
   63700       20 
   63800       20 
   63900       20 
   64000       20 
   64100       20 
   64200       20 
   64300       20 
   64400       20 
   64500       20 
   64600       20 
   64700       20 
   64800       20 
   64900       20 
   65000       20 
   65100       20 
   65200       20 
   65300       20 
   65400       20 
   65500       20 
   65600       20 
   65700       20 
   65800       20 
   65900       20 
   66000       20 
   66100       20 
   66200       20 
   66300       20 
   66400       20 
   66500       20 
   66600       20 
   66700       20 
   66800       20 
   66900       20 
   67000       20 
   67100       20 
   67200       20 
   67300       20 
   67400       20 
   67500       20 
   67600       20 
   67700       20 
   67800       20 
   67900       20 
   68000       20 
   68100       20 
   68200       20 
   68300       20 
   68400       20 
   68500       20 
   68600       20 
   68700       20 
   68800       20 
   68900       20 
   69000       20 
   69100       20 
   69200       20 
   69300       20 
   69400       20 
   69500       20 
   69600       20 
   69700       20 
   69800       20 
   69900       20 
   70000       20 
   70100       20 
   70200       20 
   70300       20 
   70400       20 
   70500       20 
   70600       20 
   70700       20 
   70800       20 
   70900       20 
   71000       20 
   71100       20 
   71200       20 
   71300       20 
   71400       20 
   71500       20 
   71600       20 
   71700       20 
   71800       20 
   71900       20 
   72000       20 
   72100       20 
   72200       20 
   72300       20 
   72400       20 
   72500       20 
   72600       20 
   72700       20 
   72800       20 
   72900       20 
   73000       20 
   73100       20 
   73200       20 
   73300       20 
   73400       20 
   73500       20 
   73600       20 
   73700       20 
   73800       20 
   73900       20 
   74000       20 
   74100       20 
   74200       20 
   74300       20 
   74400       20 
   74500       20 
   74600       20 
   74700       20 
   74800       20 
   74900       20 
   75000       20 
   75100       20 
   75200       20 
   75300       20 
   75400       20 
   75500       20 
   75600       20 
   75700       20 
   75800       20 
   75900       20 
   76000       20 
   76100       20 
   76200       20 
   76300       20 
   76400       20 
   76500       20 
   76600       20 
   76700       20 
   76800       20 
   76900       20 
   77000       20 
   77100       20 
   77200       20 
   77300       20 
   77400       20 
   77500       20 
   77600       20 
   77700       20 
   77800       20 
   77900       20 
   78000       20 
   78100       20 
   78200       20 
   78300       20 
   78400       20 
   78500       20 
   78600       20 
   78700       20 
   78800       20 
   78900       20 
   79000       20 
   79100       20 
   79200       20 
   79300       20 
   79400       20 
   79500       20 
   79600       20 
   79700       20 
   79800       20 
   79900       20 
   80000       20 
   80100       20 
   80200       20 
   80300       20 
   80400       20 
   80500       20 
   80600       20 
   80700       20 
   80800       20 
   80900       20 
   81000       20 
   81100       20 
   81200       20 
   81300       20 
   81400       20 
   81500       20 
   81600       20 
   81700       20 
   81800       20 
   81900       20 
   82000       20 
   82100       20 
   82200       20 
   82300       20 
   82400       20 
   82500       20 
   82600       20 
   82700       20 
   82800       20 
   82900       20 
   83000       20 
   83100       20 
   83200       20 
   83300       20 
   83400       20 
   83500       20 
   83600       20 
   83700       20 
   83800       20 
   83900       20 
   84000       20 
   84100       20 
   84200       20 
   84300       20 
   84400       20 
   84500       20 
   84600       20 
   84700       20 
   84800       20 
   84900       20 
   85000       20 
   85100       20 
   85200       20 
   85300       20 
   85400       20 
   85500       20 
   85600       20 
   85700       20 
   85800       20 
   85900       20 
   86000       20 
   86100       20 
   86200       20 
   86300       20 
   86400       20 
   86500       20 
   86600       20 
   86700       20 
   86800       20 
   86900       20 
   87000       20 
   87100       20 
   87200       20 
   87300       20 
   87400       20 
   87500       20 
   87600       20 
   87700       20 
   87800       20 
   87900       20 
   88000       20 
   88100       20 
   88200       20 
   88300       20 
   88400       20 
   88500       20 
   88600       20 
   88700       20 
   88800       20 
   88900       20 
   89000       20 
   89100       20 
   89200       20 
   89300       20 
   89400       20 
   89500       20 
   89600       20 
   89700       20 
   89800       20 
   89900       20 
   90000       20 
   90100       20 
   90200       20 
   90300       20 
   90400       20 
   90500       20 
   90600       20 
   90700       20 
   90800       20 
   90900       20 
   91000       20 
   91100       20 
   91200       20 
   91300       20 
   91400       20 
   91500       20 
   91600       20 
   91700       20 
   91800       20 
   91900       20 
   92000       20 
   92100       20 
   92200       20 
   92300       20 
   92400       20 
   92500       20 
   92600       20 
   92700       20 
   92800       20 
   92900       20 
   93000       20 
   93100       20 
   93200       20 
   93300       20 
   93400       20 
   93500       20 
   93600       20 
   93700       20 
   93800       20 
   93900       20 
   94000       20 
   94100       20 
   94200       20 
   94300       20 
   94400       20 
   94500       20 
   94600       20 
   94700       20 
   94800       20 
   94900       20 
   95000       20 
   95100       20 
   95200       20 
   95300       20 
   95400       20 
   95500       20 
   95600       20 
   95700       20 
   95800       20 
   95900       20 
   96000       20 
   96100       20 
   96200       20 
   96300       20 
   96400       20 
   96500       20 
   96600       20 
   96700       20 
   96800       20 
   96900       20 
   97000       20 
   97100       20 
   97200       20 
   97300       20 
   97400       20 
   97500       20 
   97600       20 
   97700       20 
   97800       20 
   97900       20 
   98000       20 
   98100       20 
   98200       20 
   98300       20 
   98400       20 
   98500       20 
   98600       20 
   98700       20 
   98800       20 
   98900       20 
   99000       20 
   99100       20 
   99200       20 
   99300       20 
   99400       20 
   99500       20 
   99600       20 
   99700       20 
   99800       20 
   99900       20 
  100000       20 
  100100       20 
  100200       20 
  100300       20 
  100400       20 
  100500       20 
  100600       20 
  100700       20 
  100800       20 
  100900       20 
  101000       20 
  101100       20 
  101200       20 
  101300       20 
  101400       20 
  101500       20 
  101600       20 
  101700       20 
  101800       20 
  101900       20 
  102000       20 
  102100       20 
  102200       20 
  102300       20 
  102400       20 
  102500       20 
  102600       20 
  102700       20 
  102800       20 
  102900       20 
  103000       20 
  103100       20 
  103200       20 
  103300       20 
  103400       20 
  103500       20 
  103600       20 
  103700       20 
  103800       20 
  103900       20 
  104000       20 
  104100       20 
  104200       20 
  104300       20 
  104400       20 
  104500       20 
  104600       20 
  104700       20 
  104800       20 
  104900       20 
  105000       20 
  105100       20 
  105200       20 
  105300       20 
  105400       20 
  105500       20 
  105600       20 
  105700       20 
  105800       20 
  105900       20 
  106000       20 
  106100       20 
  106200       20 
  106300       20 
  106400       20 
  106500       20 
  106600       20 
  106700       20 
  106800       20 
  106900       20 
  107000       20 
  107100       20 
  107200       20 
  107300       20 
  107400       20 
  107500       20 
  107600       20 
  107700       20 
  107800       20 
  107900       20 
  108000       20 
  108100       20 
  108200       20 
  108300       20 
  108400       20 
  108500       20 
  108600       20 
  108700       20 
  108800       20 
  108900       20 
  109000       20 
  109100       20 
  109200       20 
  109300       20 
  109400       20 
  109500       20 
  109600       20 
  109700       20 
  109800       20 
  109900       20 
  110000       20 
  110100       20 
  110200       20 
  110300       20 
  110400       20 
  110500       20 
  110600       20 
  110700       20 
  110800       20 
  110900       20 
  111000       20 
  111100       20 
  111200       20 
  111300       20 
  111400       20 
  111500       20 
  111600       20 
  111700       20 
  111800       20 
  111900       20 
  112000       20 
  112100       20 
  112200       20 
  112300       20 
  112400       20 
  112500       20 
  112600       20 
  112700       20 
  112800       20 
  112900       20 
  113000       20 
  113100       20 
  113200       20 
  113300       20 
  113400       20 
  113500       20 
  113600       20 
  113700       20 
  113800       20 
  113900       20 
  114000       20 
  114100       20 
  114200       20 
  114300       20 
  114400       20 
  114500       20 
  114600       20 
  114700       20 
  114800       20 
  114900       20 
  115000       20 
  115100       20 
  115200       20 
  115300       20 
  115400       20 
  115500       20 
  115600       20 
  115700       20 
  115800       20 
  115900       20 
  116000       20 
  116100       20 
  116200       20 
  116300       20 
  116400       20 
  116500       20 
  116600       20 
  116700       20 
  116800       20 
  116900       20 
  117000       20 
  117100       20 
  117200       20 
  117300       20 
  117400       20 
  117500       20 
  117600       20 
  117700       20 
  117800       20 
  117900       20 
  118000       20 
  118100       20 
  118200       20 
  118300       20 
  118400       20 
  118500       20 
  118600       20 
  118700       20 
  118800       20 
  118900       20 
  119000       20 
  119100       20 
  119200       20 
  119300       20 
  119400       20 
  119500       20 
  119600       20 
  119700       20 
  119800       20 
  119900       20 
  120000       20 
  120100       20 
  120200       20 
  120300       20 
  120400       20 
  120500       20 
  120600       20 
  120700       20 
  120800       20 
  120900       20 
  121000       20 
  121100       20 
  121200       20 
  121300       20 
  121400       20 
  121500       20 
  121600       20 
  121700       20 
  121800       20 
  121900       20 
  122000       20 
  122100       20 
  122200       20 
  122300       20 
  122400       20 
  122500       20 
  122600       20 
  122700       20 
  122800       20 
  122900       20 
  123000       20 
  123100       20 
  123200       20 
  123300       20 
  123400       20 
  123500       20 
  123600       20 
  123700       20 
  123800       20 
  123900       20 
  124000       20 
  124100       20 
  124200       20 
  124300       20 
  124400       20 
  124500       20 
  124600       20 
  124700       20 
  124800       20 
  124900       20 
  125000       20 
  125100       20 
  125200       20 
  125300       20 
  125400       20 
  125500       20 
  125600       20 
  125700       20 
  125800       20 
  125900       20 
  126000       20 
  126100       20 
  126200       20 
  126300       20 
  126400       20 
  126500       20 
  126600       20 
  126700       20 
  126800       20 
  126900       20 
  127000       20 
  127100       20 
  127200       20 
  127300       20 
  127400       20 
  127500       20 
  127600       20 
  127700       20 
  127800       20 
  127900       20 
  128000       20 
  128100       20 
  128200       20 
  128300       20 
  128400       20 
  128500       20 
  128600       20 
  128700       20 
  128800       20 
  128900       20 
  129000       20 
  129100       20 
  129200       20 
  129300       20 
  129400       20 
  129500       20 
  129600       20 
  129700       20 
  129800       20 
  129900       20 
  130000       20 
  130100       20 
  130200       20 
  130300       20 
  130400       20 
  130500       20 
  130600       20 
  130700       20 
  130800       20 
  130900       20 
  131000       20 
  131100       20 
  131200       20 
  131300       20 
  131400       20 
  131500       20 
  131600       20 
  131700       20 
  131800       20 
  131900       20 
  132000       20 
  132100       20 
  132200       20 
  132300       20 
  132400       20 
  132500       20 
  132600       20 
  132700       20 
  132800       20 
  132900       20 
  133000       20 
  133100       20 
  133200       20 
  133300       20 
  133400       20 
  133500       20 
  133600       20 
  133700       20 
  133800       20 
  133900       20 
  134000       20 
  134100       20 
  134200       20 
  134300       20 
  134400       20 
  134500       20 
  134600       20 
  134700       20 
  134800       20 
  134900       20 
  135000       20 
  135100       20 
  135200       20 
  135300       20 
  135400       20 
  135500       20 
  135600       20 
  135700       20 
  135800       20 
  135900       20 
  136000       20 
  136100       20 
  136200       20 
  136300       20 
  136400       20 
  136500       20 
  136600       20 
  136700       20 
  136800       20 
  136900       20 
  137000       20 
  137100       20 
  137200       20 
  137300       20 
  137400       20 
  137500       20 
  137600       20 
  137700       20 
  137800       20 
  137900       20 
  138000       20 
  138100       20 
  138200       20 
  138300       20 
  138400       20 
  138500       20 
  138600       20 
  138700       20 
  138800       20 
  138900       20 
  139000       20 
  139100       20 
  139200       20 
  139300       20 
  139400       20 
  139500       20 
  139600       20 
  139700       20 
  139800       20 
  139900       20 
  140000       20 
  140100       20 
  140200       20 
  140300       20 
  140400       20 
  140500       20 
  140600       20 
  140700       20 
  140800       20 
  140900       20 
  141000       20 
  141100       20 
  141200       20 
  141300       20 
  141400       20 
  141500       20 
  141600       20 
  141700       20 
  141800       20 
  141900       20 
  142000       20 
  142100       20 
  142200       20 
  142300       20 
  142400       20 
  142500       20 
  142600       20 
  142700       20 
  142800       20 
  142900       20 
  143000       20 
  143100       20 
  143200       20 
  143300       20 
  143400       20 
  143500       20 
  143600       20 
  143700       20 
  143800       20 
  143900       20 
  144000       20 
  144100       20 
  144200       20 
  144300       20 
  144400       20 
  144500       20 
  144600       20 
  144700       20 
  144800       20 
  144900       20 
  145000       20 
  145100       20 
  145200       20 
  145300       20 
  145400       20 
  145500       20 
  145600       20 
  145700       20 
  145800       20 
  145900       20 
  146000       20 
  146100       20 
  146200       20 
  146300       20 
  146400       20 
  146500       20 
  146600       20 
  146700       20 
  146800       20 
  146900       20 
  147000       20 
  147100       20 
  147200       20 
  147300       20 
  147400       20 
  147500       20 
  147600       20 
  147700       20 
  147800       20 
  147900       20 
  148000       20 
  148100       20 
  148200       20 
  148300       20 
  148400       20 
  148500       20 
  148600       20 
  148700       20 
  148800       20 
  148900       20 
  149000       20 
  149100       20 
  149200       20 
  149300       20 
  149400       20 
  149500       20 
  149600       20 
  149700       20 
  149800       20 
  149900       20 
  150000       20 
  150100       20 
  150200       20 
  150300       20 
  150400       20 
  150500       20 
  150600       20 
  150700       20 
  150800       20 
  150900       20 
  151000       20 
  151100       20 
  151200       20 
  151300       20 
  151400       20 
  151500       20 
  151600       20 
  151700       20 
  151800       20 
  151900       20 
  152000       20 
  152100       20 
  152200       20 
  152300       20 
  152400       20 
  152500       20 
  152600       20 
  152700       20 
  152800       20 
  152900       20 
  153000       20 
  153100       20 
  153200       20 
  153300       20 
  153400       20 
  153500       20 
  153600       20 
  153700       20 
  153800       20 
  153900       20 
  154000       20 
  154100       20 
  154200       20 
  154300       20 
  154400       20 
  154500       20 
  154600       20 
  154700       20 
  154800       20 
  154900       20 
  155000       20 
  155100       20 
  155200       20 
  155300       20 
  155400       20 
  155500       20 
  155600       20 
  155700       20 
  155800       20 
  155900       20 
  156000       20 
  156100       20 
  156200       20 
  156300       20 
  156400       20 
  156500       20 
  156600       20 
  156700       20 
  156800       20 
  156900       20 
  157000       20 
  157100       20 
  157200       20 
  157300       20 
  157400       20 
  157500       20 
  157600       20 
  157700       20 
  157800       20 
  157900       20 
  158000       20 
  158100       20 
  158200       20 
  158300       20 
  158400       20 
  158500       20 
  158600       20 
  158700       20 
  158800       20 
  158900       20 
  159000       20 
  159100       20 
  159200       20 
  159300       20 
  159400       20 
  159500       20 
  159600       20 
  159700       20 
  159800       20 
  159900       20 
  160000       20 
  160100       20 
  160200       20 
  160300       20 
  160400       20 
  160500       20 
  160600       20 
  160700       20 
  160800       20 
  160900       20 
  161000       20 
  161100       20 
  161200       20 
  161300       20 
  161400       20 
  161500       20 
  161600       20 
  161700       20 
  161800       20 
  161900       20 
  162000       20 
  162100       20 
  162200       20 
  162300       20 
  162400       20 
  162500       20 
  162600       20 
  162700       20 
  162800       20 
  162900       20 
  163000       20 
  163100       20 
  163200       20 
  163300       20 
  163400       20 
  163500       20 
  163600       20 
  163700       20 
  163800       20 
  163900       20 
  164000       20 
  164100       20 
  164200       20 
  164300       20 
  164400       20 
  164500       20 
  164600       20 
  164700       20 
  164800       20 
  164900       20 
  165000       20 
  165100       20 
  165200       20 
  165300       20 
  165400       20 
  165500       20 
  165600       20 
  165700       20 
  165800       20 
  165900       20 
  166000       20 
  166100       20 
  166200       20 
  166300       20 
  166400       20 
  166500       20 
  166600       20 
  166700       20 
  166800       20 
  166900       20 
  167000       20 
  167100       20 
  167200       20 
  167300       20 
  167400       20 
  167500       20 
  167600       20 
  167700       20 
  167800       20 
  167900       20 
  168000       20 
  168100       20 
  168200       20 
  168300       20 
  168400       20 
  168500       20 
  168600       20 
  168700       20 
  168800       20 
  168900       20 
  169000       20 
  169100       20 
  169200       20 
  169300       20 
  169400       20 
  169500       20 
  169600       20 
  169700       20 
  169800       20 
  169900       20 
  170000       20 
  170100       20 
  170200       20 
  170300       20 
  170400       20 
  170500       20 
  170600       20 
  170700       20 
  170800       20 
  170900       20 
  171000       20 
  171100       20 
  171200       20 
  171300       20 
  171400       20 
  171500       20 
  171600       20 
  171700       20 
  171800       20 
  171900       20 
  172000       20 
  172100       20 
  172200       20 
  172300       20 
  172400       20 
  172500       20 
  172600       20 
  172700       20 
  172800       20 
  172900       20 
  173000       20 
  173100       20 
  173200       20 
  173300       20 
  173400       20 
  173500       20 
  173600       20 
  173700       20 
  173800       20 
  173900       20 
  174000       20 
  174100       20 
  174200       20 
  174300       20 
  174400       20 
  174500       20 
  174600       20 
  174700       20 
  174800       20 
  174900       20 
  175000       20 
  175100       20 
  175200       20 
  175300       20 
  175400       20 
  175500       20 
  175600       20 
  175700       20 
  175800       20 
  175900       20 
  176000       20 
  176100       20 
  176200       20 
  176300       20 
  176400       20 
  176500       20 
  176600       20 
  176700       20 
  176800       20 
  176900       20 
  177000       20 
  177100       20 
  177200       20 
  177300       20 
  177400       20 
  177500       20 
  177600       20 
  177700       20 
  177800       20 
  177900       20 
  178000       20 
  178100       20 
  178200       20 
  178300       20 
  178400       20 
  178500       20 
  178600       20 
  178700       20 
  178800       20 
  178900       20 
  179000       20 
  179100       20 
  179200       20 
  179300       20 
  179400       20 
  179500       20 
  179600       20 
  179700       20 
  179800       20 
  179900       20 
  180000       20 
  180100       20 
  180200       20 
  180300       20 
  180400       20 
  180500       20 
  180600       20 
  180700       20 
  180800       20 
  180900       20 
  181000       20 
  181100       20 
  181200       20 
  181300       20 
  181400       20 
  181500       20 
  181600       20 
  181700       20 
  181800       20 
  181900       20 
  182000       20 
  182100       20 
  182200       20 
  182300       20 
  182400       20 
  182500       20 
  182600       20 
  182700       20 
  182800       20 
  182900       20 
  183000       20 
  183100       20 
  183200       20 
  183300       20 
  183400       20 
  183500       20 
  183600       20 
  183700       20 
  183800       20 
  183900       20 
  184000       20 
  184100       20 
  184200       20 
  184300       20 
  184400       20 
  184500       20 
  184600       20 
  184700       20 
  184800       20 
  184900       20 
  185000       20 
  185100       20 
  185200       20 
  185300       20 
  185400       20 
  185500       20 
  185600       20 
  185700       20 
  185800       20 
  185900       20 
  186000       20 
  186100       20 
  186200       20 
  186300       20 
  186400       20 
  186500       20 
  186600       20 
  186700       20 
  186800       20 
  186900       20 
  187000       20 
  187100       20 
  187200       20 
  187300       20 
  187400       20 
  187500       20 
  187600       20 
  187700       20 
  187800       20 
  187900       20 
  188000       20 
  188100       20 
  188200       20 
  188300       20 
  188400       20 
  188500       20 
  188600       20 
  188700       20 
  188800       20 
  188900       20 
  189000       20 
  189100       20 
  189200       20 
  189300       20 
  189400       20 
  189500       20 
  189600       20 
  189700       20 
  189800       20 
  189900       20 
  190000       20 
  190100       20 
  190200       20 
  190300       20 
  190400       20 
  190500       20 
  190600       20 
  190700       20 
  190800       20 
  190900       20 
  191000       20 
  191100       20 
  191200       20 
  191300       20 
  191400       20 
  191500       20 
  191600       20 
  191700       20 
  191800       20 
  191900       20 
  192000       20 
  192100       20 
  192200       20 
  192300       20 
  192400       20 
  192500       20 
  192600       20 
  192700       20 
  192800       20 
  192900       20 
  193000       20 
  193100       20 
  193200       20 
  193300       20 
  193400       20 
  193500       20 
  193600       20 
  193700       20 
  193800       20 
  193900       20 
  194000       20 
  194100       20 
  194200       20 
  194300       20 
  194400       20 
  194500       20 
  194600       20 
  194700       20 
  194800       20 
  194900       20 
  195000       20 
  195100       20 
  195200       20 
  195300       20 
  195400       20 
  195500       20 
  195600       20 
  195700       20 
  195800       20 
  195900       20 
  196000       20 
  196100       20 
  196200       20 
  196300       20 
  196400       20 
  196500       20 
  196600       20 
  196700       20 
  196800       20 
  196900       20 
  197000       20 
  197100       20 
  197200       20 
  197300       20 
  197400       20 
  197500       20 
  197600       20 
  197700       20 
  197800       20 
  197900       20 
  198000       20 
  198100       20 
  198200       20 
  198300       20 
  198400       20 
  198500       20 
  198600       20 
  198700       20 
  198800       20 
  198900       20 
  199000       20 
  199100       20 
  199200       20 
  199300       20 
  199400       20 
  199500       20 
  199600       20 
  199700       20 
  199800       20 
  199900       20 
  200000       20 
  200100       20 
  200200       20 
  200300       20 
  200400       20 
  200500       20 
  200600       20 
  200700       20 
  200800       20 
  200900       20 
  201000       20 
  201100       20 
  201200       20 
  201300       20 
  201400       20 
  201500       20 
  201600       20 
  201700       20 
  201800       20 
  201900       20 
  202000       20 
  202100       20 
  202200       20 
  202300       20 
  202400       20 
  202500       20 
  202600       20 
  202700       20 
  202800       20 
  202900       20 
  203000       20 
  203100       20 
  203200       20 
  203300       20 
  203400       20 
  203500       20 
  203600       20 
  203700       20 
  203800       20 
  203900       20 
  204000       20 
  204100       20 
  204200       20 
  204300       20 
  204400       20 
  204500       20 
  204600       20 
  204700       20 
  204800       20 
  204900       20 
  205000       20 
  205100       20 
  205200       20 
  205300       20 
  205400       20 
  205500       20 
  205600       20 
  205700       20 
  205800       20 
  205900       20 
  206000       20 
  206100       20 
  206200       20 
  206300       20 
  206400       20 
  206500       20 
  206600       20 
  206700       20 
  206800       20 
  206900       20 
  207000       20 
  207100       20 
  207200       20 
  207300       20 
  207400       20 
  207500       20 
  207600       20 
  207700       20 
  207800       20 
  207900       20 
  208000       20 
  208100       20 
  208200       20 
  208300       20 
  208400       20 
  208500       20 
  208600       20 
  208700       20 
  208800       20 
  208900       20 
  209000       20 
  209100       20 
  209200       20 
  209300       20 
  209400       20 
  209500       20 
  209600       20 
  209700       20 
  209800       20 
  209900       20 
  210000       20 
  210100       20 
  210200       20 
  210300       20 
  210400       20 
  210500       20 
  210600       20 
  210700       20 
  210800       20 
  210900       20 
  211000       20 
  211100       20 
  211200       20 
  211300       20 
  211400       20 
  211500       20 
  211600       20 
  211700       20 
  211800       20 
  211900       20 
  212000       20 
  212100       20 
  212200       20 
  212300       20 
  212400       20 
  212500       20 
  212600       20 
  212700       20 
  212800       20 
  212900       20 
  213000       20 
  213100       20 
  213200       20 
  213300       20 
  213400       20 
  213500       20 
  213600       20 
  213700       20 
  213800       20 
  213900       20 
  214000       20 
  214100       20 
  214200       20 
  214300       20 
  214400       20 
  214500       20 
  214600       20 
  214700       20 
  214800       20 
  214900       20 
  215000       20 
  215100       20 
  215200       20 
  215300       20 
  215400       20 
  215500       20 
  215600       20 
  215700       20 
  215800       20 
  215900       20 
  216000       20 
  216100       20 
  216200       20 
  216300       20 
  216400       20 
  216500       20 
  216600       20 
  216700       20 
  216800       20 
  216900       20 
  217000       20 
  217100       20 
  217200       20 
  217300       20 
  217400       20 
  217500       20 
  217600       20 
  217700       20 
  217800       20 
  217900       20 
  218000       20 
  218100       20 
  218200       20 
  218300       20 
  218400       20 
  218500       20 
  218600       20 
  218700       20 
  218800       20 
  218900       20 
  219000       20 
  219100       20 
  219200       20 
  219300       20 
  219400       20 
  219500       20 
  219600       20 
  219700       20 
  219800       20 
  219900       20 
  220000       20 
  220100       20 
  220200       20 
  220300       20 
  220400       20 
  220500       20 
  220600       20 
  220700       20 
  220800       20 
  220900       20 
  221000       20 
  221100       20 
  221200       20 
  221300       20 
  221400       20 
  221500       20 
  221600       20 
  221700       20 
  221800       20 
  221900       20 
  222000       20 
  222100       20 
  222200       20 
  222300       20 
  222400       20 
  222500       20 
  222600       20 
  222700       20 
  222800       20 
  222900       20 
  223000       20 
  223100       20 
  223200       20 
  223300       20 
  223400       20 
  223500       20 
  223600       20 
  223700       20 
  223800       20 
  223900       20 
  224000       20 
  224100       20 
  224200       20 
  224300       20 
  224400       20 
  224500       20 
  224600       20 
  224700       20 
  224800       20 
  224900       20 
  225000       20 
  225100       20 
  225200       20 
  225300       20 
  225400       20 
  225500       20 
  225600       20 
  225700       20 
  225800       20 
  225900       20 
  226000       20 
  226100       20 
  226200       20 
  226300       20 
  226400       20 
  226500       20 
  226600       20 
  226700       20 
  226800       20 
  226900       20 
  227000       20 
  227100       20 
  227200       20 
  227300       20 
  227400       20 
  227500       20 
  227600       20 
  227700       20 
  227800       20 
  227900       20 
  228000       20 
  228100       20 
  228200       20 
  228300       20 
  228400       20 
  228500       20 
  228600       20 
  228700       20 
  228800       20 
  228900       20 
  229000       20 
  229100       20 
  229200       20 
  229300       20 
  229400       20 
  229500       20 
  229600       20 
  229700       20 
  229800       20 
  229900       20 
  230000       20 
  230100       20 
  230200       20 
  230300       20 
  230400       20 
  230500       20 
  230600       20 
  230700       20 
  230800       20 
  230900       20 
  231000       20 
  231100       20 
  231200       20 
  231300       20 
  231400       20 
  231500       20 
  231600       20 
  231700       20 
  231800       20 
  231900       20 
  232000       20 
  232100       20 
  232200       20 
  232300       20 
  232400       20 
  232500       20 
  232600       20 
  232700       20 
  232800       20 
  232900       20 
  233000       20 
  233100       20 
  233200       20 
  233300       20 
  233400       20 
  233500       20 
  233600       20 
  233700       20 
  233800       20 
  233900       20 
  234000       20 
  234100       20 
  234200       20 
  234300       20 
  234400       20 
  234500       20 
  234600       20 
  234700       20 
  234800       20 
  234900       20 
  235000       20 
  235100       20 
  235200       20 
  235300       20 
  235400       20 
  235500       20 
  235600       20 
  235700       20 
  235800       20 
  235900       20 
  236000       20 
  236100       20 
  236200       20 
  236300       20 
  236400       20 
  236500       20 
  236600       20 
  236700       20 
  236800       20 
  236900       20 
  237000       20 
  237100       20 
  237200       20 
  237300       20 
  237400       20 
  237500       20 
  237600       20 
  237700       20 
  237800       20 
  237900       20 
  238000       20 
  238100       20 
  238200       20 
  238300       20 
  238400       20 
  238500       20 
  238600       20 
  238700       20 
  238800       20 
  238900       20 
  239000       20 
  239100       20 
  239200       20 
  239300       20 
  239400       20 
  239500       20 
  239600       20 
  239700       20 
  239800       20 
  239900       20 
  240000       20 
  240100       20 
  240200       20 
  240300       20 
  240400       20 
  240500       20 
  240600       20 
  240700       20 
  240800       20 
  240900       20 
  241000       20 
  241100       20 
  241200       20 
  241300       20 
  241400       20 
  241500       20 
  241600       20 
  241700       20 
  241800       20 
  241900       20 
  242000       20 
  242100       20 
  242200       20 
  242300       20 
  242400       20 
  242500       20 
  242600       20 
  242700       20 
  242800       20 
  242900       20 
  243000       20 
  243100       20 
  243200       20 
  243300       20 
  243400       20 
  243500       20 
  243600       20 
  243700       20 
  243800       20 
  243900       20 
  244000       20 
  244100       20 
  244200       20 
  244300       20 
  244400       20 
  244500       20 
  244600       20 
  244700       20 
  244800       20 
  244900       20 
  245000       20 
  245100       20 
  245200       20 
  245300       20 
  245400       20 
  245500       20 
  245600       20 
  245700       20 
  245800       20 
  245900       20 
  246000       20 
  246100       20 
  246200       20 
  246300       20 
  246400       20 
  246500       20 
  246600       20 
  246700       20 
  246800       20 
  246900       20 
  247000       20 
  247100       20 
  247200       20 
  247300       20 
  247400       20 
  247500       20 
  247600       20 
  247700       20 
  247800       20 
  247900       20 
  248000       20 
  248100       20 
  248200       20 
  248300       20 
  248400       20 
  248500       20 
  248600       20 
  248700       20 
  248800       20 
  248900       20 
  249000       20 
  249100       20 
  249200       20 
  249300       20 
  249400       20 
  249500       20 
  249600       20 
  249700       20 
  249800       20 
  249900       20 
  250000       20 
  250100       20 
  250200       20 
  250300       20 
  250400       20 
  250500       20 
  250600       20 
  250700       20 
  250800       20 
  250900       20 
  251000       20 
  251100       20 
  251200       20 
  251300       20 
  251400       20 
  251500       20 
  251600       20 
  251700       20 
  251800       20 
  251900       20 
  252000       20 
  252100       20 
  252200       20 
  252300       20 
  252400       20 
  252500       20 
  252600       20 
  252700       20 
  252800       20 
  252900       20 
  253000       20 
  253100       20 
  253200       20 
  253300       20 
  253400       20 
  253500       20 
  253600       20 
  253700       20 
  253800       20 
  253900       20 
  254000       20 
  254100       20 
  254200       20 
  254300       20 
  254400       20 
  254500       20 
  254600       20 
  254700       20 
  254800       20 
  254900       20 
  255000       20 
  255100       20 
  255200       20 
  255300       20 
  255400       20 
  255500       20 
  255600       20 
  255700       20 
  255800       20 
  255900       20 
  256000       20 
  256100       20 
  256200       20 
  256300       20 
  256400       20 
  256500       20 
  256600       20 
  256700       20 
  256800       20 
  256900       20 
  257000       20 
  257100       20 
  257200       20 
  257300       20 
  257400       20 
  257500       20 
  257600       20 
  257700       20 
  257800       20 
  257900       20 
  258000       20 
  258100       20 
  258200       20 
  258300       20 
  258400       20 
  258500       20 
  258600       20 
  258700       20 
  258800       20 
  258900       20 
  259000       20 
  259100       20 
  259200       20 
  259300       20 
  259400       20 
  259500       20 
  259600       20 
  259700       20 
  259800       20 
  259900       20 
  260000       20 
  260100       20 
  260200       20 
  260300       20 
  260400       20 
  260500       20 
  260600       20 
  260700       20 
  260800       20 
  260900       20 
  261000       20 
  261100       20 
  261200       20 
  261300       20 
  261400       20 
  261500       20 
  261600       20 
  261700       20 
  261800       20 
  261900       20 
  262000       20 
  262100       20 
  262200       20 
  262300       20 
  262400       20 
  262500       20 
  262600       20 
  262700       20 
  262800       20 
  262900       20 
  263000       20 
  263100       20 
  263200       20 
  263300       20 
  263400       20 
  263500       20 
  263600       20 
  263700       20 
  263800       20 
  263900       20 
  264000       20 
  264100       20 
  264200       20 
  264300       20 
  264400       20 
  264500       20 
  264600       20 
  264700       20 
  264800       20 
  264900       20 
  265000       20 
  265100       20 
  265200       20 
  265300       20 
  265400       20 
  265500       20 
  265600       20 
  265700       20 
  265800       20 
  265900       20 
  266000       20 
  266100       20 
  266200       20 
  266300       20 
  266400       20 
  266500       20 
  266600       20 
  266700       20 
  266800       20 
  266900       20 
  267000       20 
  267100       20 
  267200       20 
  267300       20 
  267400       20 
  267500       20 
  267600       20 
  267700       20 
  267800       20 
  267900       20 
  268000       20 
  268100       20 
  268200       20 
  268300       20 
  268400       20 
  268500       20 
  268600       20 
  268700       20 
  268800       20 
  268900       20 
  269000       20 
  269100       20 
  269200       20 
  269300       20 
  269400       20 
  269500       20 
  269600       20 
  269700       20 
  269800       20 
  269900       20 
  270000       20 
  270100       20 
  270200       20 
  270300       20 
  270400       20 
  270500       20 
  270600       20 
  270700       20 
  270800       20 
  270900       20 
  271000       20 
  271100       20 
  271200       20 
  271300       20 
  271400       20 
  271500       20 
  271600       20 
  271700       20 
  271800       20 
  271900       20 
  272000       20 
  272100       20 
  272200       20 
  272300       20 
  272400       20 
  272500       20 
  272600       20 
  272700       20 
  272800       20 
  272900       20 
  273000       20 
  273100       20 
  273200       20 
  273300       20 
  273400       20 
  273500       20 
  273600       20 
  273700       20 
  273800       20 
  273900       20 
  274000       20 
  274100       20 
  274200       20 
  274300       20 
  274400       20 
  274500       20 
  274600       20 
  274700       20 
  274800       20 
  274900       20 
  275000       20 
  275100       20 
  275200       20 
  275300       20 
  275400       20 
  275500       20 
  275600       20 
  275700       20 
  275800       20 
  275900       20 
  276000       20 
  276100       20 
  276200       20 
  276300       20 
  276400       20 
  276500       20 
  276600       20 
  276700       20 
  276800       20 
  276900       20 
  277000       20 
  277100       20 
  277200       20 
  277300       20 
  277400       20 
  277500       20 
  277600       20 
  277700       20 
  277800       20 
  277900       20 
  278000       20 
  278100       20 
  278200       20 
  278300       20 
  278400       20 
  278500       20 
  278600       20 
  278700       20 
  278800       20 
  278900       20 
  279000       20 
  279100       20 
  279200       20 
  279300       20 
  279400       20 
  279500       20 
  279600       20 
  279700       20 
  279800       20 
  279900       20 
  280000       20 
  280100       20 
  280200       20 
  280300       20 
  280400       20 
  280500       20 
  280600       20 
  280700       20 
  280800       20 
  280900       20 
  281000       20 
  281100       20 
  281200       20 
  281300       20 
  281400       20 
  281500       20 
  281600       20 
  281700       20 
  281800       20 
  281900       20 
  282000       20 
  282100       20 
  282200       20 
  282300       20 
  282400       20 
  282500       20 
  282600       20 
  282700       20 
  282800       20 
  282900       20 
  283000       20 
  283100       20 
  283200       20 
  283300       20 
  283400       20 
  283500       20 
  283600       20 
  283700       20 
  283800       20 
  283900       20 
  284000       20 
  284100       20 
  284200       20 
  284300       20 
  284400       20 
  284500       20 
  284600       20 
  284700       20 
  284800       20 
  284900       20 
  285000       20 
  285100       20 
  285200       20 
  285300       20 
  285400       20 
  285500       20 
  285600       20 
  285700       20 
  285800       20 
  285900       20 
  286000       20 
  286100       20 
  286200       20 
  286300       20 
  286400       20 
  286500       20 
  286600       20 
  286700       20 
  286800       20 
  286900       20 
  287000       20 
  287100       20 
  287200       20 
  287300       20 
  287400       20 
  287500       20 
  287600       20 
  287700       20 
  287800       20 
  287900       20 
  288000       20 
  288100       20 
  288200       20 
  288300       20 
  288400       20 
  288500       20 
  288600       20 
  288700       20 
  288800       20 
  288900       20 
  289000       20 
  289100       20 
  289200       20 
  289300       20 
  289400       20 
  289500       20 
  289600       20 
  289700       20 
  289800       20 
  289900       20 
  290000       20 
  290100       20 
  290200       20 
  290300       20 
  290400       20 
  290500       20 
  290600       20 
  290700       20 
  290800       20 
  290900       20 
  291000       20 
  291100       20 
  291200       20 
  291300       20 
  291400       20 
  291500       20 
  291600       20 
  291700       20 
  291800       20 
  291900       20 
  292000       20 
  292100       20 
  292200       20 
  292300       20 
  292400       20 
  292500       20 
  292600       20 
  292700       20 
  292800       20 
  292900       20 
  293000       20 
  293100       20 
  293200       20 
  293300       20 
  293400       20 
  293500       20 
  293600       20 
  293700       20 
  293800       20 
  293900       20 
  294000       20 
  294100       20 
  294200       20 
  294300       20 
  294400       20 
  294500       20 
  294600       20 
  294700       20 
  294800       20 
  294900       20 
  295000       20 
  295100       20 
  295200       20 
  295300       20 
  295400       20 
  295500       20 
  295600       20 
  295700       20 
  295800       20 
  295900       20 
  296000       20 
  296100       20 
  296200       20 
  296300       20 
  296400       20 
  296500       20 
  296600       20 
  296700       20 
  296800       20 
  296900       20 
  297000       20 
  297100       20 
  297200       20 
  297300       20 
  297400       20 
  297500       20 
  297600       20 
  297700       20 
  297800       20 
  297900       20 
  298000       20 
  298100       20 
  298200       20 
  298300       20 
  298400       20 
  298500       20 
  298600       20 
  298700       20 
  298800       20 
  298900       20 
  299000       20 
  299100       20 
  299200       20 
  299300       20 
  299400       20 
  299500       20 
  299600       20 
  299700       20 
  299800       20 
  299900       20 
  300000       20 
  300100       20 
  300200       20 
  300300       20 
  300400       20 
  300500       20 
  300600       20 
  300700       20 
  300800       20 
  300900       20 
  301000       20 
  301100       20 
  301200       20 
  301300       20 
  301400       20 
  301500       20 
  301600       20 
  301700       20 
  301800       20 
  301900       20 
  302000       20 
  302100       20 
  302200       20 
  302300       20 
  302400       20 
  302500       20 
  302600       20 
  302700       20 
  302800       20 
  302900       20 
  303000       20 
  303100       20 
  303200       20 
  303300       20 
  303400       20 
  303500       20 
  303600       20 
  303700       20 
  303800       20 
  303900       20 
  304000       20 
  304100       20 
  304200       20 
  304300       20 
  304400       20 
  304500       20 
  304600       20 
  304700       20 
  304800       20 
  304900       20 
  305000       20 
  305100       20 
  305200       20 
  305300       20 
  305400       20 
  305500       20 
  305600       20 
  305700       20 
  305800       20 
  305900       20 
  306000       20 
  306100       20 
  306200       20 
  306300       20 
  306400       20 
  306500       20 
  306600       20 
  306700       20 
  306800       20 
  306900       20 
  307000       20 
  307100       20 
  307200       20 
  307300       20 
  307400       20 
  307500       20 
  307600       20 
  307700       20 
  307800       20 
  307900       20 
  308000       20 
  308100       20 
  308200       20 
  308300       20 
  308400       20 
  308500       20 
  308600       20 
  308700       20 
  308800       20 
  308900       20 
  309000       20 
  309100       20 
  309200       20 
  309300       20 
  309400       20 
  309500       20 
  309600       20 
  309700       20 
  309800       20 
  309900       20 
  310000       20 
  310100       20 
  310200       20 
  310300       20 
  310400       20 
  310500       20 
  310600       20 
  310700       20 
  310800       20 
  310900       20 
  311000       20 
  311100       20 
  311200       20 
  311300       20 
  311400       20 
  311500       20 
  311600       20 
  311700       20 
  311800       20 
  311900       20 
  312000       20 
  312100       20 
  312200       20 
  312300       20 
  312400       20 
  312500       20 
  312600       20 
  312700       20 
  312800       20 
  312900       20 
  313000       20 
  313100       20 
  313200       20 
  313300       20 
  313400       20 
  313500       20 
  313600       20 
  313700       20 
  313800       20 
  313900       20 
  314000       20 
  314100       20 
  314200       20 
  314300       20 
  314400       20 
  314500       20 
  314600       20 
  314700       20 
  314800       20 
  314900       20 
  315000       20 
  315100       20 
  315200       20 
  315300       20 
  315400       20 
  315500       20 
  315600       20 
  315700       20 
  315800       20 
  315900       20 
  316000       20 
  316100       20 
  316200       20 
  316300       20 
  316400       20 
  316500       20 
  316600       20 
  316700       20 
  316800       20 
  316900       20 
  317000       20 
  317100       20 
  317200       20 
  317300       20 
  317400       20 
  317500       20 
  317600       20 
  317700       20 
  317800       20 
  317900       20 
  318000       20 
  318100       20 
  318200       20 
  318300       20 
  318400       20 
  318500       20 
  318600       20 
  318700       20 
  318800       20 
  318900       20 
  319000       20 
  319100       20 
  319200       20 
  319300       20 
  319400       20 
  319500       20 
  319600       20 
  319700       20 
  319800       20 
  319900       20 
  320000       20 
  320100       20 
  320200       20 
  320300       20 
  320400       20 
  320500       20 
  320600       20 
  320700       20 
  320800       20 
  320900       20 
  321000       20 
  321100       20 
  321200       20 
  321300       20 
  321400       20 
  321500       20 
  321600       20 
  321700       20 
  321800       20 
  321900       20 
  322000       20 
  322100       20 
  322200       20 
  322300       20 
  322400       20 
  322500       20 
  322600       20 
  322700       20 
  322800       20 
  322900       20 
  323000       20 
  323100       20 
  323200       20 
  323300       20 
  323400       20 
  323500       20 
  323600       20 
  323700       20 
  323800       20 
  323900       20 
  324000       20 
  324100       20 
  324200       20 
  324300       20 
  324400       20 
  324500       20 
  324600       20 
  324700       20 
  324800       20 
  324900       20 
  325000       20 
  325100       20 
  325200       20 
  325300       20 
  325400       20 
  325500       20 
  325600       20 
  325700       20 
  325800       20 
  325900       20 
  326000       20 
  326100       20 
  326200       20 
  326300       20 
  326400       20 
  326500       20 
  326600       20 
  326700       20 
  326800       20 
  326900       20 
  327000       20 
  327100       20 
  327200       20 
  327300       20 
  327400       20 
  327500       20 
  327600       20 
  327700       20 
  327800       20 
  327900       20 
  328000       20 
  328100       20 
  328200       20 
  328300       20 
  328400       20 
  328500       20 
  328600       20 
  328700       20 
  328800       20 
  328900       20 
  329000       20 
  329100       20 
  329200       20 
  329300       20 
  329400       20 
  329500       20 
  329600       20 
  329700       20 
  329800       20 
  329900       20 
  330000       20 
  330100       20 
  330200       20 
  330300       20 
  330400       20 
  330500       20 
  330600       20 
  330700       20 
  330800       20 
  330900       20 
  331000       20 
  331100       20 
  331200       20 
  331300       20 
  331400       20 
  331500       20 
  331600       20 
  331700       20 
  331800       20 
  331900       20 
  332000       20 
  332100       20 
  332200       20 
  332300       20 
  332400       20 
  332500       20 
  332600       20 
  332700       20 
  332800       20 
  332900       20 
  333000       20 
  333100       20 
  333200       20 
  333300       20 
  333400       20 
  333500       20 
  333600       20 
  333700       20 
  333800       20 
  333900       20 
  334000       20 
  334100       20 
  334200       20 
  334300       20 
  334400       20 
  334500       20 
  334600       20 
  334700       20 
  334800       20 
  334900       20 
  335000       20 
  335100       20 
  335200       20 
  335300       20 
  335400       20 
  335500       20 
  335600       20 
  335700       20 
  335800       20 
  335900       20 
  336000       20 
  336100       20 
  336200       20 
  336300       20 
  336400       20 
  336500       20 
  336600       20 
  336700       20 
  336800       20 
  336900       20 
  337000       20 
  337100       20 
  337200       20 
  337300       20 
  337400       20 
  337500       20 
  337600       20 
  337700       20 
  337800       20 
  337900       20 
  338000       20 
  338100       20 
  338200       20 
  338300       20 
  338400       20 
  338500       20 
  338600       20 
  338700       20 
  338800       20 
  338900       20 
  339000       20 
  339100       20 
  339200       20 
  339300       20 
  339400       20 
  339500       20 
  339600       20 
  339700       20 
  339800       20 
  339900       20 
  340000       20 
  340100       20 
  340200       20 
  340300       20 
  340400       20 
  340500       20 
  340600       20 
  340700       20 
  340800       20 
  340900       20 
  341000       20 
  341100       20 
  341200       20 
  341300       20 
  341400       20 
  341500       20 
  341600       20 
  341700       20 
  341800       20 
  341900       20 
  342000       20 
  342100       20 
  342200       20 
  342300       20 
  342400       20 
  342500       20 
  342600       20 
  342700       20 
  342800       20 
  342900       20 
  343000       20 
  343100       20 
  343200       20 
  343300       20 
  343400       20 
  343500       20 
  343600       20 
  343700       20 
  343800       20 
  343900       20 
  344000       20 
  344100       20 
  344200       20 
  344300       20 
  344400       20 
  344500       20 
  344600       20 
  344700       20 
  344800       20 
  344900       20 
  345000       20 
  345100       20 
  345200       20 
  345300       20 
  345400       20 
  345500       20 
  345600       20 
  345700       20 
  345800       20 
  345900       20 
  346000       20 
  346100       20 
  346200       20 
  346300       20 
  346400       20 
  346500       20 
  346600       20 
  346700       20 
  346800       20 
  346900       20 
  347000       20 
  347100       20 
  347200       20 
  347300       20 
  347400       20 
  347500       20 
  347600       20 
  347700       20 
  347800       20 
  347900       20 
  348000       20 
  348100       20 
  348200       20 
  348300       20 
  348400       20 
  348500       20 
  348600       20 
  348700       20 
  348800       20 
  348900       20 
  349000       20 
  349100       20 
  349200       20 
  349300       20 
  349400       20 
  349500       20 
  349600       20 
  349700       20 
  349800       20 
  349900       20 
  350000       20 
  350100       20 
  350200       20 
  350300       20 
  350400       20 
  350500       20 
  350600       20 
  350700       20 
  350800       20 
  350900       20 
  351000       20 
  351100       20 
  351200       20 
  351300       20 
  351400       20 
  351500       20 
  351600       20 
  351700       20 
  351800       20 
  351900       20 
  352000       20 
  352100       20 
  352200       20 
  352300       20 
  352400       20 
  352500       20 
  352600       20 
  352700       20 
  352800       20 
  352900       20 
  353000       20 
  353100       20 
  353200       20 
  353300       20 
  353400       20 
  353500       20 
  353600       20 
  353700       20 
  353800       20 
  353900       20 
  354000       20 
  354100       20 
  354200       20 
  354300       20 
  354400       20 
  354500       20 
  354600       20 
  354700       20 
  354800       20 
  354900       20 
  355000       20 
  355100       20 
  355200       20 
  355300       20 
  355400       20 
  355500       20 
  355600       20 
  355700       20 
  355800       20 
  355900       20 
  356000       20 
  356100       20 
  356200       20 
  356300       20 
  356400       20 
  356500       20 
  356600       20 
  356700       20 
  356800       20 
  356900       20 
  357000       20 
  357100       20 
  357200       20 
  357300       20 
  357400       20 
  357500       20 
  357600       20 
  357700       20 
  357800       20 
  357900       20 
  358000       20 
  358100       20 
  358200       20 
  358300       20 
  358400       20 
  358500       20 
  358600       20 
  358700       20 
  358800       20 
  358900       20 
  359000       20 
  359100       20 
  359200       20 
  359300       20 
  359400       20 
  359500       20 
  359600       20 
  359700       20 
  359800       20 
  359900       20 
  360000       20 
  360100       20 
  360200       20 
  360300       20 
  360400       20 
  360500       20 
  360600       20 
  360700       20 
  360800       20 
  360900       20 
  361000       20 
  361100       20 
  361200       20 
  361300       20 
  361400       20 
  361500       20 
  361600       20 
  361700       20 
  361800       20 
  361900       20 
  362000       20 
  362100       20 
  362200       20 
  362300       20 
  362400       20 
  362500       20 
  362600       20 
  362700       20 
  362800       20 
  362900       20 
  363000       20 
  363100       20 
  363200       20 
  363300       20 
  363400       20 
  363500       20 
  363600       20 
  363700       20 
  363800       20 
  363900       20 
  364000       20 
  364100       20 
  364200       20 
  364300       20 
  364400       20 
  364500       20 
  364600       20 
  364700       20 
  364800       20 
  364900       20 
  365000       20 
  365100       20 
  365200       20 
  365300       20 
  365400       20 
  365500       20 
  365600       20 
  365700       20 
  365800       20 
  365900       20 
  366000       20 
  366100       20 
  366200       20 
  366300       20 
  366400       20 
  366500       20 
  366600       20 
  366700       20 
  366800       20 
  366900       20 
  367000       20 
  367100       20 
  367200       20 
  367300       20 
  367400       20 
  367500       20 
  367600       20 
  367700       20 
  367800       20 
  367900       20 
  368000       20 
  368100       20 
  368200       20 
  368300       20 
  368400       20 
  368500       20 
  368600       20 
  368700       20 
  368800       20 
  368900       20 
  369000       20 
  369100       20 
  369200       20 
  369300       20 
  369400       20 
  369500       20 
  369600       20 
  369700       20 
  369800       20 
  369900       20 
  370000       20 
  370100       20 
  370200       20 
  370300       20 
  370400       20 
  370500       20 
  370600       20 
  370700       20 
  370800       20 
  370900       20 
  371000       20 
  371100       20 
  371200       20 
  371300       20 
  371400       20 
  371500       20 
  371600       20 
  371700       20 
  371800       20 
  371900       20 
  372000       20 
  372100       20 
  372200       20 
  372300       20 
  372400       20 
  372500       20 
  372600       20 
  372700       20 
  372800       20 
  372900       20 
  373000       20 
  373100       20 
  373200       20 
  373300       20 
  373400       20 
  373500       20 
  373600       20 
  373700       20 
  373800       20 
  373900       20 
  374000       20 
  374100       20 
  374200       20 
  374300       20 
  374400       20 
  374500       20 
  374600       20 
  374700       20 
  374800       20 
  374900       20 
  375000       20 
  375100       20 
  375200       20 
  375300       20 
  375400       20 
  375500       20 
  375600       20 
  375700       20 
  375800       20 
  375900       20 
  376000       20 
  376100       20 
  376200       20 
  376300       20 
  376400       20 
  376500       20 
  376600       20 
  376700       20 
  376800       20 
  376900       20 
  377000       20 
  377100       20 
  377200       20 
  377300       20 
  377400       20 
  377500       20 
  377600       20 
  377700       20 
  377800       20 
  377900       20 
  378000       20 
  378100       20 
  378200       20 
  378300       20 
  378400       20 
  378500       20 
  378600       20 
  378700       20 
  378800       20 
  378900       20 
  379000       20 
  379100       20 
  379200       20 
  379300       20 
  379400       20 
  379500       20 
  379600       20 
  379700       20 
  379800       20 
  379900       20 
  380000       20 
  380100       20 
  380200       20 
  380300       20 
  380400       20 
  380500       20 
  380600       20 
  380700       20 
  380800       20 
  380900       20 
  381000       20 
  381100       20 
  381200       20 
  381300       20 
  381400       20 
  381500       20 
  381600       20 
  381700       20 
  381800       20 
  381900       20 
  382000       20 
  382100       20 
  382200       20 
  382300       20 
  382400       20 
  382500       20 
  382600       20 
  382700       20 
  382800       20 
  382900       20 
  383000       20 
  383100       20 
  383200       20 
  383300       20 
  383400       20 
  383500       20 
  383600       20 
  383700       20 
  383800       20 
  383900       20 
  384000       20 
  384100       20 
  384200       20 
  384300       20 
  384400       20 
  384500       20 
  384600       20 
  384700       20 
  384800       20 
  384900       20 
  385000       20 
  385100       20 
  385200       20 
  385300       20 
  385400       20 
  385500       20 
  385600       20 
  385700       20 
  385800       20 
  385900       20 
  386000       20 
  386100       20 
  386200       20 
  386300       20 
  386400       20 
  386500       20 
  386600       20 
  386700       20 
  386800       20 
  386900       20 
  387000       20 
  387100       20 
  387200       20 
  387300       20 
  387400       20 
  387500       20 
  387600       20 
  387700       20 
  387800       20 
  387900       20 
  388000       20 
  388100       20 
  388200       20 
  388300       20 
  388400       20 
  388500       20 
  388600       20 
  388700       20 
  388800       20 
  388900       20 
  389000       20 
  389100       20 
  389200       20 
  389300       20 
  389400       20 
  389500       20 
  389600       20 
  389700       20 
  389800       20 
  389900       20 
  390000       20 
  390100       20 
  390200       20 
  390300       20 
  390400       20 
  390500       20 
  390600       20 
  390700       20 
  390800       20 
  390900       20 
  391000       20 
  391100       20 
  391200       20 
  391300       20 
  391400       20 
  391500       20 
  391600       20 
  391700       20 
  391800       20 
  391900       20 
  392000       20 
  392100       20 
  392200       20 
  392300       20 
  392400       20 
  392500       20 
  392600       20 
  392700       20 
  392800       20 
  392900       20 
  393000       20 
  393100       20 
  393200       20 
  393300       20 
  393400       20 
  393500       20 
  393600       20 
  393700       20 
  393800       20 
  393900       20 
  394000       20 
  394100       20 
  394200       20 
  394300       20 
  394400       20 
  394500       20 
  394600       20 
  394700       20 
  394800       20 
  394900       20 
  395000       20 
  395100       20 
  395200       20 
  395300       20 
  395400       20 
  395500       20 
  395600       20 
  395700       20 
  395800       20 
  395900       20 
  396000       20 
  396100       20 
  396200       20 
  396300       20 
  396400       20 
  396500       20 
  396600       20 
  396700       20 
  396800       20 
  396900       20 
  397000       20 
  397100       20 
  397200       20 
  397300       20 
  397400       20 
  397500       20 
  397600       20 
  397700       20 
  397800       20 
  397900       20 
  398000       20 
  398100       20 
  398200       20 
  398300       20 
  398400       20 
  398500       20 
  398600       20 
  398700       20 
  398800       20 
  398900       20 
  399000       20 
  399100       20 
  399200       20 
  399300       20 
  399400       20 
  399500       20 
  399600       20 
  399700       20 
  399800       20 
  399900       20 
  400000       20 
  400100       20 
  400200       20 
  400300       20 
  400400       20 
  400500       20 
  400600       20 
  400700       20 
  400800       20 
  400900       20 
  401000       20 
  401100       20 
  401200       20 
  401300       20 
  401400       20 
  401500       20 
  401600       20 
  401700       20 
  401800       20 
  401900       20 
  402000       20 
  402100       20 
  402200       20 
  402300       20 
  402400       20 
  402500       20 
  402600       20 
  402700       20 
  402800       20 
  402900       20 
  403000       20 
  403100       20 
  403200       20 
  403300       20 
  403400       20 
  403500       20 
  403600       20 
  403700       20 
  403800       20 
  403900       20 
  404000       20 
  404100       20 
  404200       20 
  404300       20 
  404400       20 
  404500       20 
  404600       20 
  404700       20 
  404800       20 
  404900       20 
  405000       20 
  405100       20 
  405200       20 
  405300       20 
[...]
 4320100       20 
 4320200       20 
 4320300       20 
 4320400       20 
 4320500       20 
 4320600       20 
 4320700       20 
 4320800       20 
 4320900       20 
 4321000       20 
 4321100       20 
 4321200       20 
 4321300       20 
 4321400       20 
 4321500       20 
 4321600       20 
 4321700       20 
 4321800       20 
 4321900       20 
 4322000       20 
 4322100       20 
 4322200       20 
 4322300       20 
 4322400       20 
 4322500       20 
 4322600       20 
 4322700       20 
 4322800       20 
 4322900       20 
 4323000       20 
 4323100       20 
 4323200       20 
 4323300       20 
 4323400       20 
 4323500       20 
 4323600       20 
 4323700       20 
 4323800       20 
 4323900       20 
 4324000       20 
 4324100       20 
 4324200       20 
 4324300       20 
 4324400       20 
 4324500       20 
 4324600       20 
 4324700       20 
 4324800       20 
 4324900       20 
 4325000       20 
 4325100       20 
 4325200       20 
 4325300       20 
 4325400       20 
 4325500       20 
 4325600       20 
 4325700       20 
 4325800       20 
 4325900       20 
 4326000       20 
 4326100       20 
 4326200       20 
 4326300       20 
 4326400       20 
 4326500       20 
 4326600       20 
 4326700       20 
 4326800       20 
 4326900       20 
 4327000       20 
 4327100       20 
 4327200       20 
 4327300       20 
 4327400       20 
 4327500       20 
 4327600       20 
 4327700       20 
 4327800       20 
 4327900       20 
 4328000       20 
 4328100       20 
 4328200       20 
 4328300       20 
 4328400       20 
 4328500       20 
 4328600       20 
 4328700       20 
 4328800       20 
 4328900       20 
 4329000       20 
 4329100       20 
 4329200       20 
 4329300       20 
 4329400       20 
 4329500       20 
 4329600       20 
 4329700       20 
 4329800       20 
 4329900       20 
 4330000       20 
 4330100       20 
 4330200       20 
 4330300       20 
 4330400       20 
 4330500       20 
 4330600       20 
 4330700       20 
 4330800       20 
 4330900       20 
 4331000       20 
 4331100       20 
 4331200       20 
 4331300       20 
 4331400       20 
 4331500       20 
 4331600       20 
 4331700       20 
 4331800       20 
 4331900       20 
 4332000       20 
 4332100       20 
 4332200       20 
 4332300       20 
 4332400       20 
 4332500       20 
 4332600       20 
 4332700       20 
 4332800       20 
 4332900       20 
 4333000       20 
 4333100       20 
 4333200       20 
 4333300       20 
 4333400       20 
 4333500       20 
 4333600       20 
 4333700       20 
 4333800       20 
 4333900       20 
 4334000       20 
 4334100       20 
 4334200       20 
 4334300       20 
 4334400       20 
 4334500       20 
 4334600       20 
 4334700       20 
 4334800       20 
 4334900       20 
 4335000       20 
 4335100       20 
 4335200       20 
 4335300       20 
 4335400       20 
 4335500       20 
 4335600       20 
 4335700       20 
 4335800       20 
 4335900       20 
 4336000       20 
 4336100       20 
 4336200       20 
 4336300       20 
 4336400       20 
 4336500       20 
 4336600       20 
 4336700       20 
 4336800       20 
 4336900       20 
 4337000       20 
 4337100       20 
 4337200       20 
 4337300       20 
 4337400       20 
 4337500       20 
 4337600       20 
 4337700       20 
 4337800       20 
 4337900       20 
 4338000       20 
 4338100       20 
 4338200       20 
 4338300       20 
 4338400       20 
 4338500       20 
 4338600       20 
 4338700       20 
 4338800       20 
 4338900       20 
 4339000       20 
 4339100       20 
 4339200       20 
 4339300       20 
 4339400       20 
 4339500       20 
 4339600       20 
 4339700       20 
 4339800       20 
 4339900       20 
 4340000       20 
 4340100       20 
 4340200       20 
 4340300       20 
 4340400       20 
 4340500       20 
 4340600       20 
 4340700       20 
 4340800       20 
 4340900       20 
 4341000       20 
 4341100       20 
 4341200       20 
 4341300       20 
 4341400       20 
 4341500       20 
 4341600       20 
 4341700       20 
 4341800       20 
 4341900       20 
 4342000       20 
 4342100       20 
 4342200       20 
 4342300       20 
 4342400       20 
 4342500       20 
 4342600       20 
 4342700       20 
 4342800       20 
 4342900       20 
 4343000       20 
 4343100       20 
 4343200       20 
 4343300       20 
 4343400       20 
 4343500       20 
 4343600       20 
 4343700       20 
 4343800       20 
 4343900       20 
 4344000       20 
 4344100       20 
 4344200       20 
 4344300       20 
 4344400       20 
 4344500       20 
 4344600       20 
 4344700       20 
 4344800       20 
 4344900       20 
 4345000       20 
 4345100       20 
 4345200       20 
 4345300       20 
 4345400       20 
 4345500       20 
 4345600       20 
 4345700       20 
 4345800       20 
 4345900       20 
 4346000       20 
 4346100       20 
 4346200       20 
 4346300       20 
 4346400       20 
 4346500       20 
 4346600       20 
 4346700       20 
 4346800       20 
 4346900       20 
 4347000       20 
 4347100       20 
 4347200       20 
 4347300       20 
 4347400       20 
 4347500       20 
 4347600       20 
 4347700       20 
 4347800       20 
 4347900       20 
 4348000       20 
 4348100       20 
 4348200       20 
 4348300       20 
 4348400       20 
 4348500       20 
 4348600       20 
 4348700       20 
 4348800       20 
 4348900       20 
 4349000       20 
 4349100       20 
 4349200       20 
 4349300       20 
 4349400       20 
 4349500       20 
 4349600       20 
 4349700       20 
 4349800       20 
 4349900       20 
 4350000       20 
 4350100       20 
 4350200       20 
 4350300       20 
 4350400       20 
 4350500       20 
 4350600       20 
 4350700       20 
 4350800       20 
 4350900       20 
 4351000       20 
 4351100       20 
 4351200       20 
 4351300       20 
 4351400       20 
 4351500       20 
 4351600       20 
 4351700       20 
 4351800       20 
 4351900       20 
 4352000       20 
 4352100       20 
 4352200       20 
 4352300       20 
 4352400       20 
 4352500       20 
 4352600       20 
 4352700       20 
 4352800       20 
 4352900       20 
 4353000       20 
 4353100       20 
 4353200       20 
 4353300       20 
 4353400       20 
 4353500       20 
 4353600       20 
 4353700       20 
 4353800       20 
 4353900       20 
 4354000       20 
 4354100       20 
 4354200       20 
 4354300       20 
 4354400       20 
 4354500       20 
 4354600       20 
 4354700       20 
 4354800       20 
 4354900       20 
 4355000       20 
 4355100       20 
 4355200       20 
 4355300       20 
 4355400       20 
 4355500       20 
 4355600       20 
 4355700       20 
 4355800       20 
 4355900       20 
 4356000       20 
 4356100       20 
 4356200       20 
 4356300       20 
 4356400       20 
 4356500       20 
 4356600       20 
 4356700       20 
 4356800       20 
 4356900       20 
 4357000       20 
 4357100       20 
 4357200       20 
 4357300       20 
 4357400       20 
 4357500       20 
 4357600       20 
 4357700       20 
 4357800       20 
 4357900       20 
 4358000       20 
 4358100       20 
 4358200       20 
 4358300       20 
 4358400       20 
 4358500       20 
 4358600       20 
 4358700       20 
 4358800       20 
 4358900       20 
 4359000       20 
 4359100       20 
 4359200       20 
 4359300       20 
 4359400       20 
 4359500       20 
 4359600       20 
 4359700       20 
 4359800       20 
 4359900       20 
 4360000       20 
 4360100       20 
 4360200       20 
 4360300       20 
 4360400       20 
 4360500       20 
 4360600       20 
 4360700       20 
 4360800       20 
 4360900       20 
 4361000       20 
 4361100       20 
 4361200       20 
 4361300       20 
 4361400       20 
 4361500       20 
 4361600       20 
 4361700       20 
 4361800       20 
 4361900       20 
 4362000       20 
 4362100       20 
 4362200       20 
 4362300       20 
 4362400       20 
 4362500       20 
 4362600       20 
 4362700       20 
 4362800       20 
 4362900       20 
 4363000       20 
 4363100       20 
 4363200       20 
 4363300       20 
 4363400       20 
 4363500       20 
 4363600       20 
 4363700       20 
 4363800       20 
 4363900       20 
 4364000       20 
 4364100       20 
 4364200       20 
 4364300       20 
 4364400       20 
 4364500       20 
 4364600       20 
 4364700       20 
 4364800       20 
 4364900       20 
 4365000       20 
 4365100       20 
 4365200       20 
 4365300       20 
 4365400       20 
 4365500       20 
 4365600       20 
 4365700       20 
 4365800       20 
 4365900       20 
 4366000       20 
 4366100       20 
 4366200       20 
 4366300       20 
 4366400       20 
 4366500       20 
 4366600       20 
 4366700       20 
 4366800       20 
 4366900       20 
 4367000       20 
 4367100       20 
 4367200       20 
 4367300       20 
 4367400       20 
 4367500       20 
 4367600       20 
 4367700       20 
 4367800       20 
 4367900       20 
 4368000       20 
 4368100       20 
 4368200       20 
 4368300       20 
 4368400       20 
 4368500       20 
 4368600       20 
 4368700       20 
 4368800       20 
 4368900       20 
 4369000       20 
 4369100       20 
 4369200       20 
 4369300       20 
 4369400       20 
 4369500       20 
 4369600       20 
 4369700       20 
 4369800       20 
 4369900       20 
 4370000       20 
 4370100       20 
 4370200       20 
 4370300       20 
 4370400       20 
 4370500       20 
 4370600       20 
 4370700       20 
 4370800       20 
 4370900       20 
 4371000       20 
 4371100       20 
 4371200       20 
 4371300       20 
 4371400       20 
 4371500       20 
 4371600       20 
 4371700       20 
 4371800       20 
 4371900       20 
 4372000       20 
 4372100       20 
 4372200       20 
 4372300       20 
 4372400       20 
 4372500       20 
 4372600       20 
 4372700       20 
 4372800       20 
 4372900       20 
 4373000       20 
 4373100       20 
 4373200       20 
 4373300       20 
 4373400       20 
 4373500       20 
 4373600       20 
 4373700       20 
 4373800       20 
 4373900       20 
 4374000       20 
 4374100       20 
 4374200       20 
 4374300       20 
 4374400       20 
 4374500       20 
 4374600       20 
 4374700       20 
 4374800       20 
 4374900       20 
 4375000       20 
 4375100       20 
 4375200       20 
 4375300       20 
 4375400       20 
 4375500       20 
 4375600       20 
 4375700       20 
 4375800       20 
 4375900       20 
 4376000       20 
 4376100       20 
 4376200       20 
 4376300       20 
 4376400       20 
 4376500       20 
 4376600       20 
 4376700       20 
 4376800       20 
 4376900       20 
 4377000       20 
 4377100       20 
 4377200       20 
 4377300       20 
 4377400       20 
 4377500       20 
 4377600       20 
 4377700       20 
 4377800       20 
 4377900       20 
 4378000       20 
 4378100       20 
 4378200       20 
 4378300       20 
 4378400       20 
 4378500       20 
 4378600       20 
 4378700       20 
 4378800       20 
 4378900       20 
 4379000       20 
 4379100       20 
 4379200       20 
 4379300       20 
 4379400       20 
 4379500       20 
 4379600       20 
 4379700       20 
 4379800       20 
 4379900       20 
 4380000       20 
 4380100       20 
 4380200       20 
 4380300       20 
 4380400       20 
 4380500       20 
 4380600       20 
 4380700       20 
 4380800       20 
 4380900       20 
 4381000       20 
 4381100       20 
 4381200       20 
 4381300       20 
 4381400       20 
 4381500       20 
 4381600       20 
 4381700       20 
 4381800       20 
 4381900       20 
 4382000       20 
 4382100       20 
 4382200       20 
 4382300       20 
 4382400       20 
 4382500       20 
 4382600       20 
 4382700       20 
 4382800       20 
 4382900       20 
 4383000       20 
 4383100       20 
 4383200       20 
 4383300       20 
 4383400       20 
 4383500       20 
 4383600       20 
 4383700       20 
 4383800       20 
 4383900       20 
 4384000       20 
 4384100       20 
 4384200       20 
 4384300       20 
 4384400       20 
 4384500       20 
 4384600       20 
 4384700       20 
 4384800       20 
 4384900       20 
 4385000       20 
 4385100       20 
 4385200       20 
 4385300       20 
 4385400       20 
 4385500       20 
 4385600       20 
 4385700       20 
 4385800       20 
 4385900       20 
 4386000       20 
 4386100       20 
 4386200       20 
 4386300       20 
 4386400       20 
 4386500       20 
 4386600       20 
 4386700       20 
 4386800       20 
 4386900       20 
 4387000       20 
 4387100       20 
 4387200       20 
 4387300       20 
 4387400       20 
 4387500       20 
 4387600       20 
 4387700       20 
 4387800       20 
 4387900       20 
 4388000       20 
 4388100       20 
 4388200       20 
 4388300       20 
 4388400       20 
 4388500       20 
 4388600       20 
 4388700       20 
 4388800       20 
 4388900       20 
 4389000       20 
 4389100       20 
 4389200       20 
 4389300       20 
 4389400       20 
 4389500       20 
 4389600       20 
 4389700       20 
 4389800       20 
 4389900       20 
 4390000       20 
 4390100       20 
 4390200       20 
 4390300       20 
 4390400       20 
 4390500       20 
 4390600       20 
 4390700       20 
 4390800       20 
 4390900       20 
 4391000       20 
 4391100       20 
 4391200       20 
 4391300       20 
 4391400       20 
 4391500       20 
 4391600       20 
 4391700       20 
 4391800       20 
 4391900       20 
 4392000       20 
 4392100       20 
 4392200       20 
 4392300       20 
 4392400       20 
 4392500       20 
 4392600       20 
 4392700       20 
 4392800       20 
 4392900       20 
 4393000       20 
 4393100       20 
 4393200       20 
 4393300       20 
 4393400       20 
 4393500       20 
 4393600       20 
 4393700       20 
 4393800       20 
 4393900       20 
 4394000       20 
 4394100       20 
 4394200       20 
 4394300       20 
 4394400       20 
 4394500       20 
 4394600       20 
 4394700       20 
 4394800       20 
 4394900       20 
 4395000       20 
 4395100       20 
 4395200       20 
 4395300       20 
 4395400       20 
 4395500       20 
 4395600       20 
 4395700       20 
 4395800       20 
 4395900       20 
 4396000       20 
 4396100       20 
 4396200       20 
 4396300       20 
 4396400       20 
 4396500       20 
 4396600       20 
 4396700       20 
 4396800       20 
 4396900       20 
 4397000       20 
 4397100       20 
 4397200       20 
 4397300       20 
 4397400       20 
 4397500       20 
 4397600       20 
 4397700       20 
 4397800       20 
 4397900       20 
 4398000       20 
 4398100       20 
 4398200       20 
 4398300       20 
 4398400       20 
 4398500       20 
 4398600       20 
 4398700       20 
 4398800       20 
 4398900       20 
 4399000       20 
 4399100       20 
 4399200       20 
 4399300       20 
 4399400       20 
 4399500       20 
 4399600       20 
 4399700       20 
 4399800       20 
 4399900       20 
 4400000       20 
 4400100       20 
 4400200       20 
 4400300       20 
 4400400       20 
 4400500       20 
 4400600       20 
 4400700       20 
 4400800       20 
 4400900       20 
 4401000       20 
 4401100       20 
 4401200       20 
 4401300       20 
 4401400       20 
 4401500       20 
 4401600       20 
 4401700       20 
 4401800       20 
 4401900       20 
 4402000       20 
 4402100       20 
 4402200       20 
 4402300       20 
 4402400       20 
 4402500       20 
 4402600       20 
 4402700       20 
 4402800       20 
 4402900       20 
 4403000       20 
 4403100       20 
 4403200       20 
 4403300       20 
 4403400       20 
 4403500       20 
 4403600       20 
 4403700       20 
 4403800       20 
 4403900       20 
 4404000       20 
 4404100       20 
 4404200       20 
 4404300       20 
 4404400       20 
 4404500       20 
 4404600       20 
 4404700       20 
 4404800       20 
 4404900       20 
 4405000       20 
 4405100       20 
 4405200       20 
 4405300       20 
 4405400       20 
 4405500       20 
 4405600       20 
 4405700       20 
 4405800       20 
 4405900       20 
 4406000       20 
 4406100       20 
 4406200       20 
 4406300       20 
 4406400       20 
 4406500       20 
 4406600       20 
 4406700       20 
 4406800       20 
 4406900       20 
 4407000       20 
 4407100       20 
 4407200       20 
 4407300       20 
 4407400       20 
 4407500       20 
 4407600       20 
 4407700       20 
 4407800       20 
 4407900       20 
 4408000       20 
 4408100       20 
 4408200       20 
 4408300       20 
 4408400       20 
 4408500       20 
 4408600       20 
 4408700       20 
 4408800       20 
 4408900       20 
 4409000       20 
 4409100       20 
 4409200       20 
 4409300       20 
 4409400       20 
 4409500       20 
 4409600       20 
 4409700       20 
 4409800       20 
 4409900       20 
 4410000       20 
 4410100       20 
 4410200       20 
 4410300       20 
 4410400       20 
 4410500       20 
 4410600       20 
 4410700       20 
 4410800       20 
 4410900       20 
 4411000       20 
 4411100       20 
 4411200       20 
 4411300       20 
 4411400       20 
 4411500       20 
 4411600       20 
 4411700       20 
 4411800       20 
 4411900       20 
 4412000       20 
 4412100       20 
 4412200       20 
 4412300       20 
 4412400       20 
 4412500       20 
 4412600       20 
 4412700       20 
 4412800       20 
 4412900       20 
 4413000       20 
 4413100       20 
 4413200       20 
 4413300       20 
 4413400       20 
 4413500       20 
 4413600       20 
 4413700       20 
 4413800       20 
 4413900       20 
 4414000       20 
 4414100       20 
 4414200       20 
 4414300       20 
 4414400       20 
 4414500       20 
 4414600       20 
 4414700       20 
 4414800       20 
 4414900       20 
 4415000       20 
 4415100       20 
 4415200       20 
 4415300       20 
 4415400       20 
 4415500       20 
 4415600       20 
 4415700       20 
 4415800       20 
 4415900       20 
 4416000       20 
 4416100       20 
 4416200       20 
 4416300       20 
 4416400       20 
 4416500       20 
 4416600       20 
 4416700       20 
 4416800       20 
 4416900       20 
 4417000       20 
 4417100       20 
 4417200       20 
 4417300       20 
 4417400       20 
 4417500       20 
 4417600       20 
 4417700       20 
 4417800       20 
 4417900       20 
 4418000       20 
 4418100       20 
 4418200       20 
 4418300       20 
 4418400       20 
 4418500       20 
 4418600       20 
 4418700       20 
 4418800       20 
 4418900       20 
 4419000       20 
 4419100       20 
 4419200       20 
 4419300       20 
 4419400       20 
 4419500       20 
 4419600       20 
 4419700       20 
 4419800       20 
 4419900       20 
 4420000       20 
 4420100       20 
 4420200       20 
 4420300       20 
 4420400       20 
 4420500       20 
 4420600       20 
 4420700       20 
 4420800       20 
 4420900       20 
 4421000       20 
 4421100       20 
 4421200       20 
 4421300       20 
 4421400       20 
 4421500       20 
 4421600       20 
 4421700       20 
 4421800       20 
 4421900       20 
 4422000       20 
 4422100       20 
 4422200       20 
 4422300       20 
 4422400       20 
 4422500       20 
 4422600       20 
 4422700       20 
 4422800       20 
 4422900       20 
 4423000       20 
 4423100       20 
 4423200       20 
 4423300       20 
 4423400       20 
 4423500       20 
 4423600       20 
 4423700       20 
 4423800       20 
 4423900       20 
 4424000       20 
 4424100       20 
 4424200       20 
 4424300       20 
 4424400       20 
 4424500       20 
 4424600       20 
 4424700       20 
 4424800       20 
 4424900       20 
 4425000       20 
 4425100       20 
 4425200       20 
 4425300 