ITEM: TIMESTEP
0
ITEM: NUMBER OF ATOMS
20
ITEM: BOX BOUNDS ff ff ff
-7.5000000000000000e+01 7.5000000000000000e+01
-7.5000000000000000e+01 7.5000000000000000e+01
-2.5000000000000000e+00 2.5000000000000000e+00
ITEM: ATOMS id type x y z 
14 1 -29.3893 -40.4508 0 
15 1 -15.4508 -47.5528 0 
16 1 -9.18485e-15 -50 0 
17 1 15.4508 -47.5528 0 
18 1 29.3893 -40.4508 0 
13 1 -40.4508 -29.3893 0 
19 1 40.4508 -29.3893 0 
12 1 -47.5528 -15.4508 0 
20 1 47.5528 -15.4508 0 
11 1 -50 6.12323e-15 0 
1 1 50 0 0 
10 1 -47.5528 15.4508 0 
2 1 47.5528 15.4508 0 
9 1 -40.4508 29.3893 0 
3 1 40.4508 29.3893 0 
8 1 -29.3893 40.4508 0 
7 1 -15.4508 47.5528 0 
5 1 15.4508 47.5528 0 
4 1 29.3893 40.4508 0 
6 1 3.06162e-15 50 0 
ITEM: TIMESTEP
333
ITEM: NUMBER OF ATOMS
20
ITEM: BOX BOUNDS ff ff ff
-7.5000000000000000e+01 7.5000000000000000e+01
-7.5000000000000000e+01 7.5000000000000000e+01
-2.5000000000000000e+00 2.5000000000000000e+00
ITEM: ATOMS id type x y z 
14 1 -28.449 -39.4245 -0.197714 
15 1 -15.1169 -46.8797 -0.22796 
16 1 0.010016 -49.8875 -0.0433646 
17 1 15.6056 -48.1675 -0.105162 
18 1 29.8804 -41.474 -0.151642 
13 1 -39.0236 -28.4422 -0.202182 
19 1 41.7088 -30.4395 -0.0774892 
12 1 -45.5238 -14.9272 -0.0799463 
20 1 49.5192 -16.1441 -0.0724081 
11 1 -47.8954 0.0215803 -0.225592 
1 1 52.1404 -0.0150342 -0.094143 
10 1 -45.6638 14.762 -0.211163 
2 1 49.5103 16.179 -0.11858 
9 1 -38.9044 28.4691 -0.132052 
3 1 41.652 30.542 -0.238147 
8 1 -28.4803 39.4653 -0.16689 
7 1 -15.1243 46.8802 -0.164789 
5 1 15.5833 48.1493 -0.206938 
4 1 29.8573 41.4684 -0.283436 
6 1 -0.138261 49.8656 -0.222695 
ITEM: TIMESTEP
666
ITEM: NUMBER OF ATOMS
20
ITEM: BOX BOUNDS ff ff ff
-7.5000000000000000e+01 7.5000000000000000e+01
-7.5000000000000000e+01 7.5000000000000000e+01
-2.5000000000000000e+00 2.5000000000000000e+00
ITEM: ATOMS id type x y z 
14 1 -27.8471 -38.8203 -0.450831 
15 1 -14.9328 -46.5222 -0.398267 
16 1 0.0238577 -49.7696 -0.278868 
17 1 15.7374 -48.5289 -0.228637 
18 1 30.2094 -42.0846 -0.280478 
13 1 -38.101 -27.8997 -0.472592 
19 1 42.4325 -31.1336 -0.13962 
12 1 -44.3776 -14.5235 -0.299283 
20 1 50.5363 -16.5322 -0.291355 
11 1 -46.6702 0.107806 -0.338537 
1 1 53.274 0.110562 -0.300293 
10 1 -44.4986 14.4397 -0.347462 
2 1 50.6556 16.607 -0.357175 
9 1 -38.1028 27.9633 -0.303216 
3 1 42.4084 31.2294 -0.433081 
8 1 -27.8573 38.8987 -0.314368 
7 1 -14.9056 46.4122 -0.401405 
5 1 15.6995 48.4867 -0.351395 
4 1 30.4014 42.0346 -0.419902 
6 1 -0.20979 49.7839 -0.483775 
ITEM: TIMESTEP
999
ITEM: NUMBER OF ATOMS
20
ITEM: BOX BOUNDS ff ff ff
-7.5000000000000000e+01 7.5000000000000000e+01
-7.5000000000000000e+01 7.5000000000000000e+01
-2.5000000000000000e+00 2.5000000000000000e+00
ITEM: ATOMS id type x y z 
14 1 -27.6047 -38.5252 -0.487123 
15 1 -14.8095 -46.2988 -0.487575 
16 1 0.0029878 -49.7501 -0.399445 
17 1 15.8049 -48.7712 -0.36768 
18 1 30.5107 -42.431 -0.417608 
13 1 -37.6267 -27.4861 -0.502943 
19 1 42.864 -31.5285 -0.326276 
12 1 -43.8237 -14.3486 -0.437795 
20 1 51.1134 -16.8837 -0.503051 
11 1 -45.9949 0.0621681 -0.48684 
1 1 54.1002 -0.0513053 -0.440144 
10 1 -43.7732 14.1347 -0.485937 
2 1 51.2513 16.7041 -0.49194 
9 1 -37.628 27.7382 -0.469429 
3 1 42.7973 31.5957 -0.492705 
8 1 -27.697 38.5387 -0.491071 
7 1 -14.8297 46.1643 -0.504138 
5 1 15.706 48.6749 -0.489493 
4 1 30.6072 42.4283 -0.484275 
6 1 -0.123584 49.727 -0.49939 
ITEM: TIMESTEP
1332
ITEM: NUMBER OF ATOMS
20
ITEM: BOX BOUNDS ff ff ff
-7.5000000000000000e+01 7.5000000000000000e+01
-7.5000000000000000e+01 7.5000000000000000e+01
-2.5000000000000000e+00 2.5000000000000000e+00
ITEM: ATOMS id type x y z 
14 1 -27.4779 -38.4017 -0.498378 
15 1 -14.8113 -46.1945 -0.507171 
16 1 -0.00927646 -49.8016 -0.459257 
17 1 15.8782 -48.7587 -0.383309 
18 1 30.5601 -42.7192 -0.507298 
13 1 -37.4217 -27.3895 -0.498776 
19 1 43.1985 -31.6977 -0.500274 
12 1 -43.4783 -14.3224 -0.507894 
20 1 51.4088 -17.0505 -0.499839 
11 1 -45.6428 0.104618 -0.492797 
1 1 54.4008 0.00940015 -0.501037 
10 1 -43.4762 14.0303 -0.500794 
2 1 51.6976 16.76 -0.507712 
9 1 -37.2495 27.5101 -0.468897 
3 1 43.0852 31.7392 -0.485563 
8 1 -27.5653 38.283 -0.507127 
7 1 -14.7813 46.1889 -0.502919 
5 1 15.7077 48.7442 -0.509827 
4 1 30.7414 42.5886 -0.493177 
6 1 -0.0865972 49.7239 -0.486508 
ITEM: TIMESTEP
1665
ITEM: NUMBER OF ATOMS
20
ITEM: BOX BOUNDS ff ff ff
-7.5000000000000000e+01 7.5000000000000000e+01
-7.5000000000000000e+01 7.5000000000000000e+01
-2.5000000000000000e+00 2.5000000000000000e+00
ITEM: ATOMS id type x y z 
14 1 -27.3871 -38.3165 -0.466068 
15 1 -14.8348 -46.0518 -0.497767 
16 1 0.0112924 -49.8085 -0.503874 
17 1 15.8904 -48.7902 -0.508439 
18 1 30.5534 -42.8392 -0.487013 
13 1 -37.2648 -27.2599 -0.501241 
19 1 43.25 -31.8959 -0.504905 
12 1 -43.2445 -14.2244 -0.499209 
20 1 51.6198 -17.1198 -0.500483 
11 1 -45.4032 0.100265 -0.472141 
1 1 54.628 -0.087693 -0.488268 
10 1 -43.3153 13.9211 -0.502658 
2 1 51.9124 16.7974 -0.490839 
9 1 -37.1281 27.2866 -0.502169 
3 1 43.3419 31.8829 -0.501073 
8 1 -27.4572 38.3013 -0.471719 
7 1 -14.7305 46.1347 -0.498725 
5 1 15.5444 48.7294 -0.495025 
4 1 30.7891 42.638 -0.502626 
6 1 -0.116982 49.7066 -0.503 
ITEM: TIMESTEP
1998
ITEM: NUMBER OF ATOMS
20
ITEM: BOX BOUNDS ff ff ff
-7.5000000000000000e+01 7.5000000000000000e+01
-7.5000000000000000e+01 7.5000000000000000e+01
-2.5000000000000000e+00 2.5000000000000000e+00
ITEM: ATOMS id type x y z 
14 1 -27.4276 -38.2356 -0.503357 
15 1 -14.8166 -46.1279 -0.507202 
16 1 0.0254291 -49.8453 -0.491032 
17 1 15.7977 -48.8655 -0.49873 
18 1 30.6561 -42.8149 -0.483849 
13 1 -37.2422 -27.2707 -0.493316 
19 1 43.3953 -31.9721 -0.514705 
12 1 -43.1398 -14.2913 -0.502099 
20 1 51.738 -17.223 -0.483541 
11 1 -45.14 0.0819566 -0.509722 
1 1 54.8223 -0.0467646 -0.501049 
10 1 -43.227 13.9659 -0.493497 
2 1 52.0054 16.761 -0.486696 
9 1 -37.0182 27.1892 -0.47857 
3 1 43.4607 32.0355 -0.488778 
8 1 -27.2147 38.3313 -0.470082 
7 1 -14.6974 46.0014 -0.497378 
5 1 15.5089 48.8234 -0.506456 
4 1 30.8916 42.7052 -0.477461 
6 1 -0.0895948 49.7008 -0.485059 
ITEM: TIMESTEP
2331
ITEM: NUMBER OF ATOMS
20
ITEM: BOX BOUNDS ff ff ff
-7.5000000000000000e+01 7.5000000000000000e+01
-7.5000000000000000e+01 7.5000000000000000e+01
-2.5000000000000000e+00 2.5000000000000000e+00
ITEM: ATOMS id type x y z 
14 1 -27.5699 -38.1794 -0.49967 
15 1 -14.7757 -45.9935 -0.48882 
16 1 0.0218146 -49.8038 -0.488196 
17 1 15.796 -48.882 -0.503872 
18 1 30.6649 -42.7936 -0.505403 
13 1 -37.2471 -27.2214 -0.466979 
19 1 43.3715 -31.9251 -0.498087 
12 1 -43.1075 -14.1816 -0.506585 
20 1 51.7212 -17.212 -0.487177 
11 1 -45.0966 0.0413804 -0.494936 
1 1 54.8207 0.0808915 -0.492323 
10 1 -43.1601 13.9186 -0.498965 
2 1 52.058 16.7577 -0.491077 
9 1 -37.0176 27.2019 -0.505343 
3 1 43.4324 31.8404 -0.480024 
8 1 -27.2805 38.1975 -0.489866 
7 1 -14.7012 45.9919 -0.50271 
5 1 15.4175 48.7975 -0.506428 
4 1 30.8304 42.7633 -0.48041 
6 1 -0.159518 49.7134 -0.50104 
ITEM: TIMESTEP
2664
ITEM: NUMBER OF ATOMS
20
ITEM: BOX BOUNDS ff ff ff
-7.5000000000000000e+01 7.5000000000000000e+01
-7.5000000000000000e+01 7.5000000000000000e+01
-2.5000000000000000e+00 2.5000000000000000e+00
ITEM: ATOMS id type x y z 
14 1 -27.49 -38.2663 -0.484379 
15 1 -14.7003 -46.0106 -0.468812 
16 1 0.0835417 -49.7566 -0.491063 
17 1 15.8028 -48.8444 -0.450721 
18 1 30.6792 -42.8477 -0.49913 
13 1 -37.1875 -27.1451 -0.507255 
19 1 43.3576 -31.8292 -0.493201 
12 1 -43.0679 -14.1762 -0.504534 
20 1 51.8715 -17.2504 -0.480374 
11 1 -45.1179 -0.00420073 -0.504166 
1 1 54.8682 0.120453 -0.476004 
10 1 -43.1069 13.8387 -0.480553 
2 1 52.052 16.7968 -0.476071 
9 1 -36.8428 27.2639 -0.501953 
3 1 43.5346 31.9097 -0.488335 
8 1 -27.29 38.1373 -0.499376 
7 1 -14.6826 45.9457 -0.493151 
5 1 15.4962 48.8775 -0.500736 
4 1 30.9049 42.773 -0.507106 
6 1 -0.119653 49.6951 -0.488374 
ITEM: TIMESTEP
2997
ITEM: NUMBER OF ATOMS
20
ITEM: BOX BOUNDS ff ff ff
-7.5000000000000000e+01 7.5000000000000000e+01
-7.5000000000000000e+01 7.5000000000000000e+01
-2.5000000000000000e+00 2.5000000000000000e+00
ITEM: ATOMS id type x y z 
14 1 -27.3658 -38.1239 -0.504305 
15 1 -14.7415 -46.0117 -0.486167 
16 1 0.040756 -49.6571 -0.501763 
17 1 15.8257 -48.901 -0.506923 
18 1 30.6813 -42.8951 -0.485937 
13 1 -37.0581 -26.9704 -0.483828 
19 1 43.4112 -31.7453 -0.499635 
12 1 -43.0058 -14.1875 -0.494791 
20 1 51.8613 -17.1818 -0.499038 
11 1 -45.0538 0.0364297 -0.486506 
1 1 54.9397 0.125153 -0.499844 
10 1 -43.1022 13.8685 -0.487941 
2 1 52.0954 16.762 -0.496803 
9 1 -36.8547 27.2899 -0.506434 
3 1 43.6094 31.8072 -0.50297 
8 1 -27.2722 38.1161 -0.498312 
7 1 -14.6063 46.0722 -0.50182 
5 1 15.4368 48.9167 -0.490809 
4 1 30.9215 42.7587 -0.495194 
6 1 -0.0955578 49.7793 -0.506296 
ITEM: TIMESTEP
3330
ITEM: NUMBER OF ATOMS
20
ITEM: BOX BOUNDS ff ff ff
-7.5000000000000000e+01 7.5000000000000000e+01
-7.5000000000000000e+01 7.5000000000000000e+01
-2.5000000000000000e+00 2.5000000000000000e+00
ITEM: ATOMS id type x y z 
14 1 -27.2777 -38.0398 -0.49191 
15 1 -14.7883 -46.0936 -0.488407 
16 1 -0.016284 -49.7603 -0.513115 
17 1 15.8365 -48.91 -0.473903 
18 1 30.637 -42.9354 -0.500163 
13 1 -37.0733 -26.9694 -0.496639 
19 1 43.4512 -31.8187 -0.49612 
12 1 -42.8696 -14.2326 -0.498695 
20 1 51.9526 -17.1122 -0.509826 
11 1 -45.0336 -0.0278778 -0.485066 
1 1 54.9261 0.217112 -0.494865 
10 1 -43.0612 13.7923 -0.504133 
2 1 52.0152 16.6756 -0.504372 
9 1 -36.8226 27.3064 -0.506046 
3 1 43.567 31.8083 -0.500854 
8 1 -27.271 38.1262 -0.503236 
7 1 -14.6039 46.0954 -0.49799 
5 1 15.4978 48.9676 -0.497985 
4 1 30.8803 42.8642 -0.488695 
6 1 -0.0345917 49.7696 -0.503652 
ITEM: TIMESTEP
3663
ITEM: NUMBER OF ATOMS
20
ITEM: BOX BOUNDS ff ff ff
-7.5000000000000000e+01 7.5000000000000000e+01
-7.5000000000000000e+01 7.5000000000000000e+01
-2.5000000000000000e+00 2.5000000000000000e+00
ITEM: ATOMS id type x y z 
14 1 -27.3995 -37.9305 -0.475268 
15 1 -14.7624 -46.1388 -0.473216 
16 1 -0.0292605 -49.6995 -0.503363 
17 1 15.9262 -48.9137 -0.502447 
18 1 30.607 -42.8846 -0.488766 
13 1 -37.0257 -27.12 -0.492365 
19 1 43.513 -31.8031 -0.494101 
12 1 -42.9054 -14.0388 -0.501571 
20 1 51.9549 -17.1378 -0.503974 
11 1 -45.0766 -0.0205029 -0.485474 
1 1 54.8963 0.148724 -0.512152 
10 1 -43.0621 13.794 -0.482355 
2 1 51.9964 16.6014 -0.489236 
9 1 -36.817 27.3061 -0.498714 
3 1 43.4993 31.7856 -0.507457 
8 1 -27.3181 38.1483 -0.504251 
7 1 -14.5529 46.0625 -0.494024 
5 1 15.4522 48.9286 -0.509972 
4 1 30.8667 42.8834 -0.478796 
6 1 -0.0933692 49.8192 -0.498003 
ITEM: TIMESTEP
3996
ITEM: NUMBER OF ATOMS
20
ITEM: BOX BOUNDS ff ff ff
-7.5000000000000000e+01 7.5000000000000000e+01
-7.5000000000000000e+01 7.5000000000000000e+01
-2.5000000000000000e+00 2.5000000000000000e+00
ITEM: ATOMS id type x y z 
14 1 -27.2668 -37.9785 -0.492056 
15 1 -14.8091 -46.0623 -0.500558 
16 1 -0.00562834 -49.7104 -0.498974 
17 1 15.8378 -48.9698 -0.50708 
18 1 30.6768 -43.0159 -0.474716 
13 1 -37.0341 -27.1362 -0.495522 
19 1 43.5495 -31.967 -0.497752 
12 1 -42.9704 -14.1399 -0.496977 
20 1 51.9181 -17.0544 -0.488179 
11 1 -45.055 -0.0532548 -0.497465 
1 1 54.9812 0.26035 -0.503624 
10 1 -42.9893 13.8683 -0.489235 
2 1 52.0296 16.7974 -0.493383 
9 1 -36.8196 27.3708 -0.490631 
3 1 43.5709 31.9301 -0.499501 
8 1 -27.3984 38.1748 -0.502964 
7 1 -14.5939 46.0142 -0.448219 
5 1 15.4229 49.0382 -0.496704 
4 1 30.8433 42.8779 -0.499534 
6 1 -0.138665 49.7833 -0.507587 
ITEM: TIMESTEP
4329
ITEM: NUMBER OF ATOMS
20
ITEM: BOX BOUNDS ff ff ff
-7.5000000000000000e+01 7.5000000000000000e+01
-7.5000000000000000e+01 7.5000000000000000e+01
-2.5000000000000000e+00 2.5000000000000000e+00
ITEM: ATOMS id type x y z 
14 1 -27.248 -38.0739 -0.5102 
15 1 -14.752 -46.0848 -0.497301 
16 1 -0.0745741 -49.7151 -0.496915 
17 1 15.8494 -48.9989 -0.499921 
18 1 30.6315 -42.9425 -0.495534 
13 1 -37.0407 -27.0951 -0.436908 
19 1 43.4934 -31.8641 -0.502929 
12 1 -42.9489 -14.1999 -0.498024 
20 1 51.8672 -17.0628 -0.494752 
11 1 -45.0204 -0.0895115 -0.482304 
1 1 55.0367 0.315445 -0.507404 
10 1 -42.9949 13.8946 -0.495583 
2 1 52.0753 16.8096 -0.500429 
9 1 -36.9273 27.4007 -0.486641 
3 1 43.522 32.0364 -0.495004 
8 1 -27.4173 38.2332 -0.493749 
7 1 -14.5887 46.0085 -0.436548 
5 1 15.4918 48.9741 -0.482398 
4 1 30.8679 42.8637 -0.502933 
6 1 -0.165049 49.7519 -0.492456 
ITEM: TIMESTEP
4662
ITEM: NUMBER OF ATOMS
20
ITEM: BOX BOUNDS ff ff ff
-7.5000000000000000e+01 7.5000000000000000e+01
-7.5000000000000000e+01 7.5000000000000000e+01
-2.5000000000000000e+00 2.5000000000000000e+00
ITEM: ATOMS id type x y z 
14 1 -27.3584 -38.1419 -0.513929 
15 1 -14.6571 -46.0225 -0.498298 
16 1 0.0482631 -49.711 -0.506418 
17 1 15.822 -48.9816 -0.505213 
18 1 30.492 -42.9719 -0.494734 
13 1 -37.0201 -27.0638 -0.492221 
19 1 43.5104 -31.9296 -0.493464 
12 1 -43.0504 -14.3254 -0.497958 
20 1 51.879 -17.1 -0.497476 
11 1 -45.049 -0.0274133 -0.502786 
1 1 55.0834 0.300421 -0.495873 
10 1 -43.1073 13.7941 -0.502737 
2 1 52.0123 16.7699 -0.482576 
9 1 -36.8248 27.3476 -0.512023 
3 1 43.4463 31.9527 -0.480167 
8 1 -27.4929 38.1894 -0.494512 
7 1 -14.6613 46.0165 -0.488323 
5 1 15.516 48.9292 -0.467622 
4 1 30.815 42.8202 -0.460737 
6 1 -0.221455 49.6847 -0.466412 
ITEM: TIMESTEP
4995
ITEM: NUMBER OF ATOMS
20
ITEM: BOX BOUNDS ff ff ff
-7.5000000000000000e+01 7.5000000000000000e+01
-7.5000000000000000e+01 7.5000000000000000e+01
-2.5000000000000000e+00 2.5000000000000000e+00
ITEM: ATOMS id type x y z 
14 1 -27.3602 -38.1952 -0.500815 
15 1 -14.7263 -45.97 -0.473808 
16 1 0.0803637 -49.6976 -0.498972 
17 1 15.7906 -48.9971 -0.490001 
18 1 30.5949 -42.9459 -0.464487 
13 1 -37.031 -27.1513 -0.504779 
19 1 43.5835 -31.8684 -0.488819 
12 1 -42.9678 -14.3532 -0.491999 
20 1 51.9304 -16.9925 -0.500991 
11 1 -45.0405 0.149443 -0.498337 
1 1 55.0832 0.341252 -0.494431 
10 1 -42.9645 13.9391 -0.476001 
2 1 52.038 16.8297 -0.505242 
9 1 -36.7718 27.32 -0.506664 
3 1 43.4528 31.9608 -0.498031 
8 1 -27.4661 38.1036 -0.490198 
7 1 -14.6408 46.054 -0.502141 
5 1 15.4374 48.9087 -0.481809 
4 1 30.8909 42.824 -0.494878 
6 1 -0.275043 49.7005 -0.492345 
ITEM: TIMESTEP
5328
ITEM: NUMBER OF ATOMS
20
ITEM: BOX BOUNDS ff ff ff
-7.5000000000000000e+01 7.5000000000000000e+01
-7.5000000000000000e+01 7.5000000000000000e+01
-2.5000000000000000e+00 2.5000000000000000e+00
ITEM: ATOMS id type x y z 
14 1 -27.4138 -38.0633 -0.502512 
15 1 -14.691 -45.933 -0.491205 
16 1 -0.0256055 -49.7367 -0.502447 
17 1 15.6795 -49.0136 -0.486104 
18 1 30.5293 -43.0618 -0.498035 
13 1 -37.068 -27.1511 -0.507827 
19 1 43.4263 -31.7164 -0.50924 
12 1 -42.9924 -14.28 -0.492444 
20 1 51.9089 -16.9889 -0.499176 
11 1 -44.8902 0.134139 -0.494238 
1 1 54.9768 0.338325 -0.498244 
10 1 -42.9286 13.8253 -0.496915 
2 1 52.06 16.8877 -0.475789 
9 1 -36.8469 27.3656 -0.498175 
3 1 43.4792 32.09 -0.477279 
8 1 -27.4906 37.9274 -0.477717 
7 1 -14.5771 45.9292 -0.502392 
5 1 15.4894 48.9476 -0.512662 
4 1 30.8583 42.8855 -0.507469 
6 1 -0.267214 49.6457 -0.486327 
ITEM: TIMESTEP
5661
ITEM: NUMBER OF ATOMS
20
ITEM: BOX BOUNDS ff ff ff
-7.5000000000000000e+01 7.5000000000000000e+01
-7.5000000000000000e+01 7.5000000000000000e+01
-2.5000000000000000e+00 2.5000000000000000e+00
ITEM: ATOMS id type x y z 
14 1 -27.3303 -38.1268 -0.504653 
15 1 -14.716 -45.9969 -0.497087 
16 1 -0.024205 -49.7825 -0.499406 
17 1 15.6594 -48.9868 -0.493996 
18 1 30.4455 -43.1564 -0.49173 
13 1 -37.0946 -27.1415 -0.496651 
19 1 43.4676 -31.7975 -0.474466 
12 1 -42.9831 -14.2322 -0.508432 
20 1 51.894 -16.9572 -0.49748 
11 1 -44.8733 0.124389 -0.478394 
1 1 54.9906 0.267669 -0.495122 
10 1 -42.8741 13.9255 -0.509465 
2 1 52.0342 16.8655 -0.480731 
9 1 -36.9112 27.3224 -0.470661 
3 1 43.479 31.9932 -0.485104 
8 1 -27.5138 37.909 -0.492133 
7 1 -14.5065 45.9563 -0.477431 
5 1 15.5093 49.0493 -0.494479 
4 1 30.8534 42.9016 -0.501593 
6 1 -0.273333 49.6684 -0.498039 
ITEM: TIMESTEP
5994
ITEM: NUMBER OF ATOMS
20
ITEM: BOX BOUNDS ff ff ff
-7.5000000000000000e+01 7.5000000000000000e+01
-7.5000000000000000e+01 7.5000000000000000e+01
-2.5000000000000000e+00 2.5000000000000000e+00
ITEM: ATOMS id type x y z 
14 1 -27.4108 -38.0814 -0.485238 
15 1 -14.6691 -46.0037 -0.49294 
16 1 -0.0850215 -49.7722 -0.492292 
17 1 15.5907 -48.8965 -0.488079 
18 1 30.3428 -43.1578 -0.503557 
13 1 -37.0262 -27.1424 -0.480144 
19 1 43.504 -31.7508 -0.48806 
12 1 -42.9763 -14.1884 -0.496126 
20 1 51.9465 -16.9812 -0.480619 
11 1 -44.9541 0.272223 -0.492128 
1 1 55.105 0.290312 -0.500952 
10 1 -42.9258 13.9841 -0.494088 
2 1 52.0968 16.7979 -0.496854 
9 1 -36.9291 27.3157 -0.471531 
3 1 43.5189 31.9723 -0.500207 
8 1 -27.529 37.8977 -0.510262 
7 1 -14.6177 45.9832 -0.502018 
5 1 15.4307 49.0562 -0.505558 
4 1 30.8359 42.9655 -0.490879 
6 1 -0.225633 49.6815 -0.492448 
ITEM: TIMESTEP
6327
ITEM: NUMBER OF ATOMS
20
ITEM: BOX BOUNDS ff ff ff
-7.5000000000000000e+01 7.5000000000000000e+01
-7.5000000000000000e+01 7.5000000000000000e+01
-2.5000000000000000e+00 2.5000000000000000e+00
ITEM: ATOMS id type x y z 
14 1 -27.4091 -38.0844 -0.505915 
15 1 -14.6405 -45.9505 -0.473393 
16 1 0.0330395 -49.7122 -0.507155 
17 1 15.6145 -48.8331 -0.500073 
18 1 30.291 -43.1024 -0.48896 
13 1 -37.0364 -27.161 -0.49574 
19 1 43.598 -31.8393 -0.436817 
12 1 -43.045 -14.2177 -0.500741 
20 1 51.9537 -16.9179 -0.501538 
11 1 -45.0225 0.309084 -0.492448 
1 1 55.028 0.412569 -0.510641 
10 1 -42.891 14.0276 -0.469722 
2 1 52.0439 16.7949 -0.485393 
9 1 -36.8695 27.3488 -0.500037 
3 1 43.4334 31.9451 -0.499426 
8 1 -27.5097 37.9562 -0.500848 
7 1 -14.518 45.9948 -0.4429 
5 1 15.5744 48.8932 -0.473076 
4 1 30.9025 42.8292 -0.493837 
6 1 -0.12613 49.732 -0.499299 
ITEM: TIMESTEP
6660
ITEM: NUMBER OF ATOMS
20
ITEM: BOX BOUNDS ff ff ff
-7.5000000000000000e+01 7.5000000000000000e+01
-7.5000000000000000e+01 7.5000000000000000e+01
-2.5000000000000000e+00 2.5000000000000000e+00
ITEM: ATOMS id type x y z 
14 1 -27.3498 -38.1024 -0.499916 
15 1 -14.6111 -45.9288 -0.501103 
16 1 0.00700058 -49.7615 -0.504059 
17 1 15.679 -48.8368 -0.490753 
18 1 30.4049 -43.0114 -0.48266 
13 1 -36.9719 -27.1372 -0.494118 
19 1 43.5964 -31.8405 -0.509494 
12 1 -42.9932 -14.2184 -0.50793 
20 1 52.0076 -16.7835 -0.493407 
11 1 -44.9412 0.314976 -0.501289 
1 1 55.0449 0.350751 -0.513317 
10 1 -42.8972 14.1075 -0.497531 
2 1 52.1975 16.8145 -0.476662 
9 1 -36.8245 27.3974 -0.497317 
3 1 43.3251 32.0067 -0.498295 
8 1 -27.4999 38.0457 -0.505616 
7 1 -14.5272 45.9488 -0.49904 
5 1 15.6255 48.9001 -0.492726 
4 1 30.9417 42.8429 -0.500506 
6 1 -0.141513 49.8253 -0.507894 
ITEM: TIMESTEP
6993
ITEM: NUMBER OF ATOMS
20
ITEM: BOX BOUNDS ff ff ff
-7.5000000000000000e+01 7.5000000000000000e+01
-7.5000000000000000e+01 7.5000000000000000e+01
-2.5000000000000000e+00 2.5000000000000000e+00
ITEM: ATOMS id type x y z 
14 1 -27.3987 -38.1857 -0.503152 
15 1 -14.5844 -45.7929 -0.484601 
16 1 0.0188664 -49.6995 -0.488864 
17 1 15.6352 -48.8592 -0.477366 
18 1 30.3551 -43.044 -0.505456 
13 1 -36.946 -27.1259 -0.494964 
19 1 43.6097 -31.7555 -0.49697 
12 1 -42.9566 -14.189 -0.499267 
20 1 52.0064 -16.7883 -0.47549 
11 1 -44.9919 0.393437 -0.500845 
1 1 55.0512 0.289461 -0.499969 
10 1 -42.954 14.1437 -0.500412 
2 1 52.0335 16.8656 -0.484247 
9 1 -36.807 27.298 -0.475966 
3 1 43.4017 31.9596 -0.465482 
8 1 -27.5154 38.0099 -0.502139 
7 1 -14.3794 46.0183 -0.495479 
5 1 15.6417 48.8865 -0.486322 
4 1 30.9277 42.8692 -0.487108 
6 1 -0.188154 49.8413 -0.503794 
ITEM: TIMESTEP
7326
ITEM: NUMBER OF ATOMS
20
ITEM: BOX BOUNDS ff ff ff
-7.5000000000000000e+01 7.5000000000000000e+01
-7.5000000000000000e+01 7.5000000000000000e+01
-2.5000000000000000e+00 2.5000000000000000e+00
ITEM: ATOMS id type x y z 
14 1 -27.4396 -38.0946 -0.488206 
15 1 -14.7382 -45.8877 -0.499575 
16 1 -0.00408871 -49.7124 -0.471141 
17 1 15.6807 -48.8145 -0.507791 
18 1 30.2715 -43.0298 -0.456189 
13 1 -36.9785 -27.1913 -0.491341 
19 1 43.591 -31.7862 -0.505054 
12 1 -42.9576 -14.1749 -0.482954 
20 1 52.064 -16.8133 -0.503651 
11 1 -44.9798 0.530501 -0.50046 
1 1 54.9114 0.196061 -0.506306 
10 1 -42.9306 14.1733 -0.49623 
2 1 51.994 16.9016 -0.496317 
9 1 -36.8146 27.2336 -0.483644 
3 1 43.4245 32.0001 -0.477811 
8 1 -27.4116 38 -0.502758 
7 1 -14.3508 46.1348 -0.477414 
5 1 15.6287 48.9293 -0.494298 
4 1 31.0221 42.8187 -0.48789 
6 1 -0.22404 49.8439 -0.501615 
ITEM: TIMESTEP
7659
ITEM: NUMBER OF ATOMS
20
ITEM: BOX BOUNDS ff ff ff
-7.5000000000000000e+01 7.5000000000000000e+01
-7.5000000000000000e+01 7.5000000000000000e+01
-2.5000000000000000e+00 2.5000000000000000e+00
ITEM: ATOMS id type x y z 
14 1 -27.4715 -38.1063 -0.508375 
15 1 -14.8323 -45.8208 -0.499902 
16 1 0.00671686 -49.7337 -0.457595 
17 1 15.6823 -48.7918 -0.500573 
18 1 30.2899 -43.1124 -0.471227 
13 1 -36.9952 -27.1735 -0.49207 
19 1 43.5755 -31.8279 -0.497922 
12 1 -42.8696 -14.1992 -0.489942 
20 1 52.0908 -16.9225 -0.498589 
11 1 -44.9278 0.650991 -0.510948 
1 1 54.9988 0.248266 -0.501973 
10 1 -42.9587 14.0703 -0.491639 
2 1 51.9883 16.8863 -0.470971 
9 1 -36.8359 27.2434 -0.505372 
3 1 43.3451 32.0302 -0.502328 
8 1 -27.394 38.022 -0.491467 
7 1 -14.2939 46.1099 -0.50506 
5 1 15.6643 48.9681 -0.487571 
4 1 31.0882 42.7437 -0.496117 
6 1 -0.339379 49.7765 -0.480473 
ITEM: TIMESTEP
7992
ITEM: NUMBER OF ATOMS
20
ITEM: BOX BOUNDS ff ff ff
-7.5000000000000000e+01 7.5000000000000000e+01
-7.5000000000000000e+01 7.5000000000000000e+01
-2.5000000000000000e+00 2.5000000000000000e+00
ITEM: ATOMS id type x y z 
14 1 -27.5193 -38.1154 -0.502467 
15 1 -14.8973 -45.8127 -0.506201 
16 1 -0.0158919 -49.7036 -0.487103 
17 1 15.7706 -48.8072 -0.493527 
18 1 30.3304 -43.0581 -0.503996 
13 1 -37.0177 -27.1533 -0.494859 
19 1 43.6331 -31.8347 -0.497025 
12 1 -42.935 -14.2045 -0.48792 
20 1 52.0544 -17.0753 -0.499952 
11 1 -45.0098 0.681092 -0.503808 
1 1 54.9822 0.18147 -0.474525 
10 1 -42.9281 14.0585 -0.465926 
2 1 51.9569 16.9421 -0.4956 
9 1 -36.9434 27.2937 -0.471341 
3 1 43.4146 32.0733 -0.490559 
8 1 -27.3878 38.0865 -0.501722 
7 1 -14.2895 46.1947 -0.509972 
5 1 15.6418 49.0344 -0.461566 
4 1 31.0897 42.6107 -0.482466 
6 1 -0.255162 49.7468 -0.502456 
ITEM: TIMESTEP
8325
ITEM: NUMBER OF ATOMS
20
ITEM: BOX BOUNDS ff ff ff
-7.5000000000000000e+01 7.5000000000000000e+01
-7.5000000000000000e+01 7.5000000000000000e+01
-2.5000000000000000e+00 2.5000000000000000e+00
ITEM: ATOMS id type x y z 
14 1 -27.6057 -38.0923 -0.496926 
15 1 -14.885 -45.837 -0.501689 
16 1 0.0993132 -49.6942 -0.488664 
17 1 15.799 -48.7847 -0.489543 
18 1 30.2607 -43.048 -0.504326 
13 1 -36.9948 -27.1329 -0.504195 
19 1 43.6831 -31.8191 -0.506593 
12 1 -42.9763 -14.2612 -0.501782 
20 1 51.9634 -17.0652 -0.503802 
11 1 -44.9769 0.510364 -0.475779 
1 1 55.116 0.177055 -0.498738 
10 1 -42.9698 14.1357 -0.489132 
2 1 51.8888 16.9531 -0.479224 
9 1 -36.8837 27.3536 -0.485219 
3 1 43.3883 32.001 -0.50502 
8 1 -27.4236 38.047 -0.503071 
7 1 -14.263 46.2404 -0.490804 
5 1 15.6151 48.9591 -0.498944 
4 1 31.0879 42.6044 -0.504824 
6 1 -0.138932 49.7412 -0.501975 
ITEM: TIMESTEP
8658
ITEM: NUMBER OF ATOMS
20
ITEM: BOX BOUNDS ff ff ff
-7.5000000000000000e+01 7.5000000000000000e+01
-7.5000000000000000e+01 7.5000000000000000e+01
-2.5000000000000000e+00 2.5000000000000000e+00
ITEM: ATOMS id type x y z 
14 1 -27.5017 -38.1329 -0.494868 
15 1 -15.0094 -45.9064 -0.49339 
16 1 0.0369037 -49.6408 -0.486854 
17 1 15.6405 -48.9011 -0.50626 
18 1 30.2536 -43.0466 -0.493077 
13 1 -37.0379 -27.0232 -0.505089 
19 1 43.6444 -31.8067 -0.511599 
12 1 -42.8988 -14.2665 -0.489397 
20 1 52.075 -17.086 -0.501026 
11 1 -44.9889 0.512299 -0.488027 
1 1 54.9972 0.163805 -0.498384 
10 1 -43.0063 14.109 -0.507168 
2 1 51.905 16.8963 -0.458135 
9 1 -36.8319 27.2713 -0.491524 
3 1 43.3685 32.0137 -0.467583 
8 1 -27.3974 38.0454 -0.496352 
7 1 -14.1856 46.2592 -0.471009 
5 1 15.6869 48.9989 -0.506724 
4 1 31.0821 42.6557 -0.484868 
6 1 -0.138794 49.7208 -0.503007 
ITEM: TIMESTEP
8991
ITEM: NUMBER OF ATOMS
20
ITEM: BOX BOUNDS ff ff ff
-7.5000000000000000e+01 7.5000000000000000e+01
-7.5000000000000000e+01 7.5000000000000000e+01
-2.5000000000000000e+00 2.5000000000000000e+00
ITEM: ATOMS id type x y z 
14 1 -27.4311 -38.008 -0.488038 
15 1 -14.9824 -45.9516 -0.493763 
16 1 0.0415854 -49.6337 -0.495801 
17 1 15.5847 -48.9394 -0.508191 
18 1 30.1477 -43.041 -0.51309 
13 1 -37.0877 -26.9903 -0.507227 
19 1 43.7493 -31.7161 -0.497371 
12 1 -42.9754 -14.2959 -0.501221 
20 1 52.0551 -17.0143 -0.502508 
11 1 -45.0525 0.573544 -0.500457 
1 1 55.0409 0.148379 -0.494163 
10 1 -43.0598 14.0219 -0.490052 
2 1 51.94 16.9733 -0.499658 
9 1 -36.8008 27.3473 -0.499926 
3 1 43.3159 32.1301 -0.495773 
8 1 -27.4648 38.0458 -0.467103 
7 1 -14.1925 46.2023 -0.499715 
5 1 15.8628 48.8853 -0.510315 
4 1 31.1314 42.6472 -0.503209 
6 1 -0.16281 49.6292 -0.491028 
ITEM: TIMESTEP
9324
ITEM: NUMBER OF ATOMS
20
ITEM: BOX BOUNDS ff ff ff
-7.5000000000000000e+01 7.5000000000000000e+01
-7.5000000000000000e+01 7.5000000000000000e+01
-2.5000000000000000e+00 2.5000000000000000e+00
ITEM: ATOMS id type x y z 
14 1 -27.5243 -37.9213 -0.506144 
15 1 -14.8589 -45.7998 -0.493046 
16 1 -0.012452 -49.5673 -0.476659 
17 1 15.5906 -48.9156 -0.500739 
18 1 30.1787 -43.0956 -0.494537 
13 1 -37.0674 -26.9478 -0.496649 
19 1 43.7065 -31.7782 -0.494856 
12 1 -42.9102 -14.2276 -0.49472 
20 1 51.9912 -17.019 -0.506094 
11 1 -44.942 0.549246 -0.497914 
1 1 55.0426 0.237272 -0.486919 
10 1 -42.9622 14.0458 -0.496228 
2 1 51.9622 16.9971 -0.490222 
9 1 -36.7719 27.2598 -0.494724 
3 1 43.3223 32.0428 -0.463211 
8 1 -27.5294 37.9372 -0.509025 
7 1 -14.1341 46.1013 -0.486944 
5 1 15.8449 48.841 -0.503182 
4 1 31.0134 42.7127 -0.49821 
6 1 -0.162543 49.741 -0.503042 
ITEM: TIMESTEP
9657
ITEM: NUMBER OF ATOMS
20
ITEM: BOX BOUNDS ff ff ff
-7.5000000000000000e+01 7.5000000000000000e+01
-7.5000000000000000e+01 7.5000000000000000e+01
-2.5000000000000000e+00 2.5000000000000000e+00
ITEM: ATOMS id type x y z 
14 1 -27.4993 -37.9576 -0.486383 
15 1 -14.8717 -45.7882 -0.49516 
16 1 -0.0609692 -49.6625 -0.50245 
17 1 15.6368 -48.8644 -0.488323 
18 1 30.2151 -43.0753 -0.491724 
13 1 -36.9933 -26.9968 -0.457621 
19 1 43.5835 -31.8037 -0.493276 
12 1 -42.8731 -14.2172 -0.48907 
20 1 51.9863 -17.0567 -0.500468 
11 1 -44.9991 0.476434 -0.505398 
1 1 55.0844 0.24871 -0.508937 
10 1 -42.9547 14.0535 -0.503067 
2 1 51.9903 17.0229 -0.474731 
9 1 -36.7981 27.2731 -0.508149 
3 1 43.2147 32.0413 -0.498886 
8 1 -27.5356 37.9443 -0.50582 
7 1 -14.1523 46.1175 -0.501219 
5 1 15.8976 48.7366 -0.480371 
4 1 30.9951 42.7468 -0.47421 
6 1 -0.284461 49.6285 -0.498373 
ITEM: TIMESTEP
9990
ITEM: NUMBER OF ATOMS
20
ITEM: BOX BOUNDS ff ff ff
-7.5000000000000000e+01 7.5000000000000000e+01
-7.5000000000000000e+01 7.5000000000000000e+01
-2.5000000000000000e+00 2.5000000000000000e+00
ITEM: ATOMS id type x y z 
14 1 -27.4393 -38.0576 -0.449949 
15 1 -14.9786 -45.8098 -0.48877 
16 1 -0.0533005 -49.7393 -0.505642 
17 1 15.5737 -48.7832 -0.506528 
18 1 30.1925 -43.0712 -0.490751 
13 1 -36.9668 -27.1469 -0.510703 
19 1 43.5471 -31.8053 -0.460833 
12 1 -42.8567 -14.1992 -0.491307 
20 1 52.0394 -16.9802 -0.494686 
11 1 -44.9746 0.473798 -0.501805 
1 1 55.0063 0.154945 -0.504481 
10 1 -42.9421 14.0294 -0.509311 
2 1 52.0235 17.0291 -0.496195 
9 1 -36.753 27.4127 -0.496773 
3 1 43.2567 32.1212 -0.500933 
8 1 -27.6918 37.8972 -0.50266 
7 1 -14.1971 46.2229 -0.452366 
5 1 15.934 48.8193 -0.501735 
4 1 31.0047 42.6644 -0.506366 
6 1 -0.402442 49.6473 -0.490508 
ITEM: TIMESTEP
10323
ITEM: NUMBER OF ATOMS
20
ITEM: BOX BOUNDS ff ff ff
-7.5000000000000000e+01 7.5000000000000000e+01
-7.5000000000000000e+01 7.5000000000000000e+01
-2.5000000000000000e+00 2.5000000000000000e+00
ITEM: ATOMS id type x y z 
14 1 -27.4819 -37.9633 -0.501939 
15 1 -14.9459 -45.8799 -0.49698 
16 1 -0.0890068 -49.7896 -0.505365 
17 1 15.6556 -48.776 -0.503726 
18 1 30.2122 -43.2463 -0.497432 
13 1 -36.9586 -27.1697 -0.468058 
19 1 43.5018 -31.7823 -0.504278 
12 1 -42.8951 -14.1875 -0.501736 
20 1 51.9978 -16.8975 -0.496468 
11 1 -45.0196 0.388729 -0.502228 
1 1 54.9847 0.230185 -0.485158 
10 1 -42.8088 13.9367 -0.494419 
2 1 51.9709 16.9872 -0.440726 
9 1 -36.8199 27.369 -0.490711 
3 1 43.309 32.1657 -0.506314 
8 1 -27.6722 37.9392 -0.487051 
7 1 -14.2215 46.1942 -0.505431 
5 1 15.887 48.7771 -0.496633 
4 1 30.9809 42.6601 -0.502297 
6 1 -0.408356 49.7273 -0.481234 
ITEM: TIMESTEP
10656
ITEM: NUMBER OF ATOMS
20
ITEM: BOX BOUNDS ff ff ff
-7.5000000000000000e+01 7.5000000000000000e+01
-7.5000000000000000e+01 7.5000000000000000e+01
-2.5000000000000000e+00 2.5000000000000000e+00
ITEM: ATOMS id type x y z 
14 1 -27.4502 -38.0455 -0.490486 
15 1 -14.821 -45.8011 -0.45545 
16 1 -0.0939815 -49.6894 -0.473432 
17 1 15.6463 -48.8131 -0.504461 
18 1 30.2811 -43.1985 -0.491439 
13 1 -36.9726 -27.1626 -0.489368 
19 1 43.5087 -31.8387 -0.485225 
12 1 -42.9647 -14.3024 -0.485672 
20 1 52.125 -16.9262 -0.455559 
11 1 -44.953 0.329934 -0.500965 
1 1 54.9791 0.213164 -0.489228 
10 1 -42.9098 13.9452 -0.498381 
2 1 51.9624 16.9494 -0.486401 
9 1 -36.8073 27.3835 -0.488361 
3 1 43.3627 32.1274 -0.437581 
8 1 -27.6018 38.0414 -0.489538 
7 1 -14.1619 46.1478 -0.501707 
5 1 16.0032 48.7812 -0.481445 
4 1 31.0962 42.5171 -0.499396 
6 1 -0.548664 49.7676 -0.489059 
ITEM: TIMESTEP
10989
ITEM: NUMBER OF ATOMS
20
ITEM: BOX BOUNDS ff ff ff
-7.5000000000000000e+01 7.5000000000000000e+01
-7.5000000000000000e+01 7.5000000000000000e+01
-2.5000000000000000e+00 2.5000000000000000e+00
ITEM: ATOMS id type x y z 
14 1 -27.4503 -38.0283 -0.461217 
15 1 -14.8722 -45.8221 -0.502436 
16 1 -0.264536 -49.6956 -0.484264 
17 1 15.6973 -48.8188 -0.479875 
18 1 30.2214 -43.2506 -0.503957 
13 1 -37.0676 -27.1778 -0.501278 
19 1 43.6307 -31.8223 -0.501244 
12 1 -42.9157 -14.2622 -0.491445 
20 1 52.14 -16.8823 -0.502003 
11 1 -44.9898 0.234526 -0.518592 
1 1 54.9808 0.0910911 -0.491721 
10 1 -42.9044 13.9119 -0.500661 
2 1 51.9911 16.9393 -0.509814 
9 1 -36.7514 27.3778 -0.471419 
3 1 43.3265 32.1406 -0.502873 
8 1 -27.5478 37.9589 -0.492296 
7 1 -14.1091 46.1455 -0.496322 
5 1 15.9764 48.8321 -0.466467 