ITEM: TIMESTEP
0
ITEM: NUMBER OF ATOMS
20
ITEM: BOX BOUNDS ff ff ff
-7.5000000000000000e+01 7.5000000000000000e+01
-7.5000000000000000e+01 7.5000000000000000e+01
-2.5000000000000000e+00 2.5000000000000000e+00
ITEM: ATOMS id type x y z 
14 1 -29.3893 -40.4508 0 
15 1 -15.4508 -47.5528 0 
16 1 -9.18485e-15 -50 0 
17 1 15.4508 -47.5528 0 
18 1 29.3893 -40.4508 0 
13 1 -40.4508 -29.3893 0 
19 1 40.4508 -29.3893 0 
12 1 -47.5528 -15.4508 0 
20 1 47.5528 -15.4508 0 
11 1 -50 6.12323e-15 0 
1 1 50 0 0 
10 1 -47.5528 15.4508 0 
2 1 47.5528 15.4508 0 
9 1 -40.4508 29.3893 0 
3 1 40.4508 29.3893 0 
8 1 -29.3893 40.4508 0 
7 1 -15.4508 47.5528 0 
5 1 15.4508 47.5528 0 
4 1 29.3893 40.4508 0 
6 1 3.06162e-15 50 0 
ITEM: TIMESTEP
333
ITEM: NUMBER OF ATOMS
20
ITEM: BOX BOUNDS ff ff ff
-7.5000000000000000e+01 7.5000000000000000e+01
-7.5000000000000000e+01 7.5000000000000000e+01
-2.5000000000000000e+00 2.5000000000000000e+00
ITEM: ATOMS id type x y z 
14 1 -29.3257 -40.3832 -0.291106 
15 1 -15.5172 -47.5267 -0.109853 
16 1 0.131471 -49.9514 -0.180185 
17 1 15.3895 -47.5714 -0.207349 
18 1 29.2994 -40.4736 -0.23106 
13 1 -40.4166 -29.4112 -0.204857 
19 1 40.4854 -29.3516 -0.216648 
12 1 -47.5172 -15.4648 -0.181819 
20 1 47.4479 -15.543 -0.124485 
11 1 -49.9322 0.00324339 -0.17683 
1 1 49.9764 -0.0547834 -0.112632 
10 1 -47.5523 15.5276 -0.177479 
2 1 47.5674 15.3777 -0.14242 
9 1 -40.3866 29.3901 -0.202781 
3 1 40.4167 29.4273 -0.134898 
8 1 -29.3713 40.4465 -0.100952 
7 1 -15.4152 47.6394 -0.090797 
5 1 15.4194 47.5829 -0.27759 
4 1 29.5262 40.3842 -0.170794 
6 1 -0.0894669 49.911 -0.0840586 
ITEM: TIMESTEP
666
ITEM: NUMBER OF ATOMS
20
ITEM: BOX BOUNDS ff ff ff
-7.5000000000000000e+01 7.5000000000000000e+01
-7.5000000000000000e+01 7.5000000000000000e+01
-2.5000000000000000e+00 2.5000000000000000e+00
ITEM: ATOMS id type x y z 
14 1 -29.2911 -40.3855 -0.489047 
15 1 -15.485 -47.6694 -0.255926 
16 1 0.1036 -49.98 -0.280564 
17 1 15.4067 -47.6482 -0.383123 
18 1 29.2794 -40.5448 -0.488995 
13 1 -40.4362 -29.4301 -0.408687 
19 1 40.5565 -29.2424 -0.452178 
12 1 -47.6155 -15.5173 -0.414984 
20 1 47.4567 -15.5773 -0.287891 
11 1 -49.9304 -0.203548 -0.338714 
1 1 49.9913 -0.233364 -0.376353 
10 1 -47.5398 15.5252 -0.348298 
2 1 47.6266 15.297 -0.318049 
9 1 -40.3467 29.5517 -0.499637 
3 1 40.3973 29.4445 -0.404895 
8 1 -29.4131 40.4664 -0.129224 
7 1 -15.4002 47.6221 -0.234268 
5 1 15.4262 47.5523 -0.387088 
4 1 29.4712 40.3943 -0.487366 
6 1 -0.197317 49.9477 -0.299414 
ITEM: TIMESTEP
999
ITEM: NUMBER OF ATOMS
20
ITEM: BOX BOUNDS ff ff ff
-7.5000000000000000e+01 7.5000000000000000e+01
-7.5000000000000000e+01 7.5000000000000000e+01
-2.5000000000000000e+00 2.5000000000000000e+00
ITEM: ATOMS id type x y z 
14 1 -29.35 -40.4469 -0.502298 
15 1 -15.4679 -47.6209 -0.47279 
16 1 0.0400613 -49.9688 -0.336782 
17 1 15.2804 -47.5959 -0.500215 
18 1 29.2218 -40.491 -0.478171 
13 1 -40.4503 -29.5294 -0.453793 
19 1 40.5707 -29.3078 -0.495377 
12 1 -47.6111 -15.5018 -0.49976 
20 1 47.4013 -15.6404 -0.473663 
11 1 -49.9447 -0.23153 -0.485741 
1 1 49.9483 -0.311068 -0.503985 
10 1 -47.5749 15.5367 -0.479427 
2 1 47.555 15.5416 -0.411369 
9 1 -40.2994 29.4925 -0.498096 
3 1 40.468 29.4949 -0.4514 
8 1 -29.4012 40.454 -0.416466 
7 1 -15.3768 47.5678 -0.417939 
5 1 15.4119 47.5577 -0.488252 
4 1 29.5364 40.4586 -0.501791 
6 1 -0.192691 49.9871 -0.458917 
ITEM: TIMESTEP
1332
ITEM: NUMBER OF ATOMS
20
ITEM: BOX BOUNDS ff ff ff
-7.5000000000000000e+01 7.5000000000000000e+01
-7.5000000000000000e+01 7.5000000000000000e+01
-2.5000000000000000e+00 2.5000000000000000e+00
ITEM: ATOMS id type x y z 
14 1 -29.395 -40.4194 -0.490508 
15 1 -15.5383 -47.6218 -0.505623 
16 1 0.0119286 -50.016 -0.503454 
17 1 15.2991 -47.592 -0.491819 
18 1 29.1551 -40.5526 -0.494534 
13 1 -40.4024 -29.4634 -0.507481 
19 1 40.6378 -29.2293 -0.453557 
12 1 -47.6483 -15.4811 -0.503691 
20 1 47.5975 -15.6244 -0.453145 
11 1 -49.9497 -0.24031 -0.499511 
1 1 49.9078 -0.304216 -0.500653 
10 1 -47.5265 15.5286 -0.498348 
2 1 47.467 15.5263 -0.502359 
9 1 -40.2814 29.4621 -0.505019 
3 1 40.4898 29.4074 -0.49795 
8 1 -29.3953 40.5009 -0.500135 
7 1 -15.4263 47.5456 -0.497028 
5 1 15.3635 47.554 -0.500798 
4 1 29.5483 40.326 -0.493837 
6 1 -0.185246 50.0492 -0.505868 
ITEM: TIMESTEP
1665
ITEM: NUMBER OF ATOMS
20
ITEM: BOX BOUNDS ff ff ff
-7.5000000000000000e+01 7.5000000000000000e+01
-7.5000000000000000e+01 7.5000000000000000e+01
-2.5000000000000000e+00 2.5000000000000000e+00
ITEM: ATOMS id type x y z 
14 1 -29.3821 -40.4187 -0.502481 
15 1 -15.5557 -47.574 -0.500266 
16 1 0.0826604 -50.0307 -0.497123 
17 1 15.2954 -47.6542 -0.483589 
18 1 29.2575 -40.5563 -0.504397 
13 1 -40.3841 -29.5023 -0.485499 
19 1 40.6834 -29.2126 -0.492521 
12 1 -47.5644 -15.2905 -0.507213 
20 1 47.6088 -15.4734 -0.491029 
11 1 -49.9877 -0.17357 -0.50327 
1 1 49.8955 -0.251861 -0.506851 
10 1 -47.5186 15.5576 -0.495338 
2 1 47.4579 15.5357 -0.507034 
9 1 -40.3835 29.4415 -0.506038 
3 1 40.4856 29.375 -0.492671 
8 1 -29.4113 40.5157 -0.495752 
7 1 -15.3765 47.4942 -0.488069 
5 1 15.4613 47.5997 -0.504659 
4 1 29.5416 40.2833 -0.509822 
6 1 -0.055699 50.111 -0.499473 
ITEM: TIMESTEP
1998
ITEM: NUMBER OF ATOMS
20
ITEM: BOX BOUNDS ff ff ff
-7.5000000000000000e+01 7.5000000000000000e+01
-7.5000000000000000e+01 7.5000000000000000e+01
-2.5000000000000000e+00 2.5000000000000000e+00
ITEM: ATOMS id type x y z 
14 1 -29.395 -40.3896 -0.483757 
15 1 -15.5337 -47.4192 -0.497678 
16 1 0.0636336 -49.91 -0.506085 
17 1 15.3004 -47.7217 -0.497516 
18 1 29.2206 -40.5601 -0.50212 
13 1 -40.348 -29.5425 -0.494735 
19 1 40.6244 -29.1698 -0.504035 
12 1 -47.514 -15.1993 -0.5014 
20 1 47.4523 -15.5414 -0.491679 
11 1 -49.9613 -0.181286 -0.504252 
1 1 49.9772 -0.369548 -0.493831 
10 1 -47.5755 15.5976 -0.490181 
2 1 47.4442 15.4842 -0.488088 
9 1 -40.4263 29.4096 -0.495761 
3 1 40.4814 29.3968 -0.491065 
8 1 -29.3883 40.5459 -0.497022 
7 1 -15.3336 47.5496 -0.468707 
5 1 15.5949 47.5401 -0.501736 
4 1 29.5627 40.2804 -0.453973 
6 1 -0.138948 50.0904 -0.501588 
ITEM: TIMESTEP
2331
ITEM: NUMBER OF ATOMS
20
ITEM: BOX BOUNDS ff ff ff
-7.5000000000000000e+01 7.5000000000000000e+01
-7.5000000000000000e+01 7.5000000000000000e+01
-2.5000000000000000e+00 2.5000000000000000e+00
ITEM: ATOMS id type x y z 
14 1 -29.4113 -40.4257 -0.497647 
15 1 -15.5169 -47.487 -0.491004 
16 1 0.037424 -49.9314 -0.432565 
17 1 15.2512 -47.6424 -0.505078 
18 1 29.2304 -40.6557 -0.471379 
13 1 -40.3136 -29.6247 -0.499564 
19 1 40.5895 -29.2481 -0.49854 
12 1 -47.4777 -15.2228 -0.496218 
20 1 47.4872 -15.5714 -0.505406 
11 1 -49.9453 -0.251626 -0.488423 
1 1 50.0266 -0.47865 -0.477346 
10 1 -47.5908 15.5482 -0.502004 
2 1 47.5006 15.6151 -0.503367 
9 1 -40.4073 29.2595 -0.455094 
3 1 40.499 29.3352 -0.497425 
8 1 -29.4327 40.5409 -0.499364 
7 1 -15.3071 47.5695 -0.482312 
5 1 15.5516 47.5104 -0.491906 
4 1 29.5841 40.2544 -0.441278 
6 1 -0.168645 50.1376 -0.494895 
ITEM: TIMESTEP
2664
ITEM: NUMBER OF ATOMS
20
ITEM: BOX BOUNDS ff ff ff
-7.5000000000000000e+01 7.5000000000000000e+01
-7.5000000000000000e+01 7.5000000000000000e+01
-2.5000000000000000e+00 2.5000000000000000e+00
ITEM: ATOMS id type x y z 
14 1 -29.4108 -40.4845 -0.498367 
15 1 -15.524 -47.4869 -0.49259 
16 1 0.122253 -49.8994 -0.469687 
17 1 15.28 -47.5868 -0.491703 
18 1 29.0543 -40.6499 -0.506678 
13 1 -40.2655 -29.5221 -0.490101 
19 1 40.6897 -29.125 -0.492629 
12 1 -47.5795 -15.1345 -0.501979 
20 1 47.5481 -15.6163 -0.509175 
11 1 -49.9633 -0.378571 -0.500826 
1 1 50.0367 -0.575777 -0.481634 
10 1 -47.6543 15.5626 -0.497215 
2 1 47.3632 15.6483 -0.493977 
9 1 -40.5097 29.2013 -0.499624 
3 1 40.4654 29.3376 -0.479363 
8 1 -29.3657 40.4594 -0.492099 
7 1 -15.412 47.5746 -0.498714 
5 1 15.5181 47.5067 -0.495767 
4 1 29.5365 40.2993 -0.493214 
6 1 -0.0538746 50.085 -0.492139 
ITEM: TIMESTEP
2997
ITEM: NUMBER OF ATOMS
20
ITEM: BOX BOUNDS ff ff ff
-7.5000000000000000e+01 7.5000000000000000e+01
-7.5000000000000000e+01 7.5000000000000000e+01
-2.5000000000000000e+00 2.5000000000000000e+00
ITEM: ATOMS id type x y z 
14 1 -29.379 -40.5305 -0.463977 
15 1 -15.4524 -47.5561 -0.487001 
16 1 0.215302 -49.9942 -0.493911 
17 1 15.3168 -47.6171 -0.512078 
18 1 29.1096 -40.7145 -0.499989 
13 1 -40.2967 -29.4702 -0.461575 
19 1 40.6105 -29.2116 -0.500972 
12 1 -47.5639 -15.1811 -0.503917 
20 1 47.5862 -15.6504 -0.501727 
11 1 -49.947 -0.307167 -0.488886 
1 1 50.0166 -0.610949 -0.505478 
10 1 -47.5372 15.42 -0.507731 
2 1 47.3976 15.7355 -0.507314 
9 1 -40.517 29.1334 -0.4792 
3 1 40.4578 29.3162 -0.496434 
8 1 -29.3629 40.5664 -0.493847 
7 1 -15.2581 47.531 -0.478991 
5 1 15.4943 47.5041 -0.506557 
4 1 29.484 40.3955 -0.484308 
6 1 -0.0817902 50.0259 -0.500412 
ITEM: TIMESTEP
3330
ITEM: NUMBER OF ATOMS
20
ITEM: BOX BOUNDS ff ff ff
-7.5000000000000000e+01 7.5000000000000000e+01
-7.5000000000000000e+01 7.5000000000000000e+01
-2.5000000000000000e+00 2.5000000000000000e+00
ITEM: ATOMS id type x y z 
14 1 -29.3171 -40.4524 -0.48922 
15 1 -15.4542 -47.5159 -0.493844 
16 1 0.131347 -50.0107 -0.491379 
17 1 15.3679 -47.6909 -0.483459 
18 1 29.1531 -40.7135 -0.507612 
13 1 -40.2939 -29.3615 -0.496867 
19 1 40.6385 -29.196 -0.484471 
12 1 -47.4772 -15.2307 -0.50175 
20 1 47.5768 -15.5812 -0.504179 
11 1 -50.0397 -0.343167 -0.49829 
1 1 50.047 -0.566722 -0.493546 
10 1 -47.571 15.4952 -0.495719 
2 1 47.3336 15.7953 -0.466117 
9 1 -40.5955 29.1553 -0.500564 
3 1 40.3958 29.3887 -0.498815 
8 1 -29.3339 40.563 -0.485141 
7 1 -15.198 47.5704 -0.50051 
5 1 15.4519 47.4596 -0.503184 
4 1 29.4203 40.5505 -0.441656 
6 1 -0.10668 50.0367 -0.484005 
ITEM: TIMESTEP
3663
ITEM: NUMBER OF ATOMS
20
ITEM: BOX BOUNDS ff ff ff
-7.5000000000000000e+01 7.5000000000000000e+01
-7.5000000000000000e+01 7.5000000000000000e+01
-2.5000000000000000e+00 2.5000000000000000e+00
ITEM: ATOMS id type x y z 
14 1 -29.2823 -40.4034 -0.502744 
15 1 -15.4598 -47.5349 -0.506787 
16 1 0.124389 -50.0042 -0.504627 
17 1 15.4167 -47.5831 -0.511062 
18 1 29.2132 -40.6507 -0.490195 
13 1 -40.3384 -29.5297 -0.504504 
19 1 40.6386 -29.2128 -0.493917 
12 1 -47.4692 -15.2514 -0.513406 
20 1 47.4758 -15.6293 -0.506766 
11 1 -50.1077 -0.294962 -0.500767 
1 1 50.089 -0.506744 -0.459423 
10 1 -47.5985 15.4067 -0.500529 
2 1 47.3789 15.7935 -0.508681 
9 1 -40.5196 29.0869 -0.493915 
3 1 40.4671 29.4404 -0.500898 
8 1 -29.2226 40.6104 -0.494355 
7 1 -15.2942 47.6019 -0.46161 
5 1 15.4007 47.5785 -0.479558 
4 1 29.3683 40.4917 -0.500925 
6 1 -0.143451 49.9527 -0.486721 
ITEM: TIMESTEP
3996
ITEM: NUMBER OF ATOMS
20
ITEM: BOX BOUNDS ff ff ff
-7.5000000000000000e+01 7.5000000000000000e+01
-7.5000000000000000e+01 7.5000000000000000e+01
-2.5000000000000000e+00 2.5000000000000000e+00
ITEM: ATOMS id type x y z 
14 1 -29.3785 -40.3262 -0.508781 
15 1 -15.543 -47.4662 -0.503098 
16 1 0.101616 -50.0664 -0.500261 
17 1 15.3306 -47.5613 -0.488616 
18 1 29.2228 -40.6749 -0.505453 
13 1 -40.3786 -29.4862 -0.504515 
19 1 40.5974 -29.2472 -0.50937 
12 1 -47.6099 -15.2171 -0.501255 
20 1 47.5469 -15.5934 -0.495754 
11 1 -50.0828 -0.293422 -0.502601 
1 1 50.0359 -0.492444 -0.50464 
10 1 -47.6066 15.3989 -0.443954 
2 1 47.3298 15.8119 -0.4873 
9 1 -40.3958 29.1925 -0.500626 
3 1 40.476 29.3262 -0.50514 
8 1 -29.213 40.676 -0.50277 
7 1 -15.1808 47.6148 -0.49811 
5 1 15.5094 47.5517 -0.488735 
4 1 29.3129 40.4435 -0.486959 
6 1 -0.0981358 49.989 -0.500173 
ITEM: TIMESTEP
4329
ITEM: NUMBER OF ATOMS
20
ITEM: BOX BOUNDS ff ff ff
-7.5000000000000000e+01 7.5000000000000000e+01
-7.5000000000000000e+01 7.5000000000000000e+01
-2.5000000000000000e+00 2.5000000000000000e+00
ITEM: ATOMS id type x y z 
14 1 -29.3598 -40.3161 -0.507631 
15 1 -15.4243 -47.6658 -0.501932 
16 1 0.154932 -50.0322 -0.49895 
17 1 15.3079 -47.5675 -0.495556 
18 1 29.3955 -40.5347 -0.505433 
13 1 -40.3521 -29.6391 -0.493727 
19 1 40.5887 -29.2513 -0.500263 
12 1 -47.6405 -15.2173 -0.505978 
20 1 47.5781 -15.541 -0.505655 
11 1 -49.9992 -0.281384 -0.501396 
1 1 50.0622 -0.493241 -0.511978 
10 1 -47.5897 15.4123 -0.5026 
2 1 47.417 15.85 -0.491599 
9 1 -40.534 29.1803 -0.495338 
3 1 40.4365 29.3814 -0.497246 
8 1 -29.2804 40.6879 -0.503532 
7 1 -15.1323 47.6285 -0.499772 
5 1 15.5515 47.4776 -0.507909 
4 1 29.2668 40.4285 -0.504893 
6 1 -0.154867 49.9435 -0.491506 
ITEM: TIMESTEP
4662
ITEM: NUMBER OF ATOMS
20
ITEM: BOX BOUNDS ff ff ff
-7.5000000000000000e+01 7.5000000000000000e+01
-7.5000000000000000e+01 7.5000000000000000e+01
-2.5000000000000000e+00 2.5000000000000000e+00
ITEM: ATOMS id type x y z 
14 1 -29.3966 -40.2882 -0.472914 
15 1 -15.5229 -47.6539 -0.492654 
16 1 0.0832259 -50.0067 -0.484462 
17 1 15.2798 -47.6757 -0.491289 
18 1 29.3513 -40.5477 -0.501273 
13 1 -40.403 -29.4946 -0.508297 
19 1 40.457 -29.2984 -0.480554 
12 1 -47.6892 -15.1955 -0.497826 
20 1 47.5495 -15.4547 -0.497615 
11 1 -50.0526 -0.351494 -0.496633 
1 1 50.1203 -0.507265 -0.498094 
10 1 -47.5831 15.4036 -0.453781 
2 1 47.3997 15.8145 -0.491451 
9 1 -40.5565 29.0873 -0.496073 
3 1 40.4572 29.4275 -0.49869 
8 1 -29.2974 40.5937 -0.501451 
7 1 -15.1327 47.6854 -0.501373 
5 1 15.6007 47.4569 -0.493933 
4 1 29.3889 40.4206 -0.478799 
6 1 -0.107533 49.9464 -0.484263 
ITEM: TIMESTEP
4995
ITEM: NUMBER OF ATOMS
20
ITEM: BOX BOUNDS ff ff ff
-7.5000000000000000e+01 7.5000000000000000e+01
-7.5000000000000000e+01 7.5000000000000000e+01
-2.5000000000000000e+00 2.5000000000000000e+00
ITEM: ATOMS id type x y z 
14 1 -29.4819 -40.3439 -0.495555 
15 1 -15.4255 -47.671 -0.43759 
16 1 0.0324386 -50.0561 -0.50459 
17 1 15.0848 -47.6741 -0.486696 
18 1 29.3457 -40.5047 -0.494253 
13 1 -40.4659 -29.5382 -0.517929 
19 1 40.47 -29.3975 -0.48819 
12 1 -47.6582 -15.1783 -0.497729 
20 1 47.5564 -15.4216 -0.488502 
11 1 -50.1166 -0.355416 -0.495946 
1 1 50.0137 -0.391418 -0.501922 
10 1 -47.5771 15.3199 -0.503813 
2 1 47.4271 15.7385 -0.495834 
9 1 -40.7023 29.0176 -0.489979 
3 1 40.5033 29.3372 -0.486936 
8 1 -29.3397 40.5238 -0.51099 
7 1 -15.0791 47.6331 -0.501891 
5 1 15.5892 47.4427 -0.493367 
4 1 29.195 40.5245 -0.500562 
6 1 -0.194765 49.9299 -0.495598 
ITEM: TIMESTEP
5328
ITEM: NUMBER OF ATOMS
20
ITEM: BOX BOUNDS ff ff ff
-7.5000000000000000e+01 7.5000000000000000e+01
-7.5000000000000000e+01 7.5000000000000000e+01
-2.5000000000000000e+00 2.5000000000000000e+00
ITEM: ATOMS id type x y z 
14 1 -29.4212 -40.3544 -0.503842 
15 1 -15.4388 -47.5923 -0.490633 
16 1 -0.00311179 -50.0888 -0.501804 
17 1 15.0597 -47.6561 -0.498914 
18 1 29.3679 -40.4932 -0.49309 
13 1 -40.5069 -29.4498 -0.499028 
19 1 40.5105 -29.2716 -0.500158 
12 1 -47.7258 -15.1072 -0.42284 
20 1 47.4862 -15.4557 -0.506138 
11 1 -50.0462 -0.446969 -0.499523 
1 1 49.9984 -0.338396 -0.498629 
10 1 -47.6122 15.3272 -0.515282 
2 1 47.498 15.7502 -0.501491 
9 1 -40.6346 29.0624 -0.502382 
3 1 40.4425 29.3663 -0.509437 
8 1 -29.2806 40.4398 -0.463502 
7 1 -15.0647 47.6208 -0.508779 
5 1 15.6493 47.4862 -0.490868 
4 1 29.215 40.5872 -0.478593 
6 1 -0.160781 49.9843 -0.467485 
ITEM: TIMESTEP
5661
ITEM: NUMBER OF ATOMS
20
ITEM: BOX BOUNDS ff ff ff
-7.5000000000000000e+01 7.5000000000000000e+01
-7.5000000000000000e+01 7.5000000000000000e+01
-2.5000000000000000e+00 2.5000000000000000e+00
ITEM: ATOMS id type x y z 
14 1 -29.4005 -40.3502 -0.498031 
15 1 -15.5316 -47.5431 -0.50776 
16 1 0.0167564 -49.9718 -0.503006 
17 1 15.1102 -47.6546 -0.505287 
18 1 29.2437 -40.3685 -0.478531 
13 1 -40.465 -29.4329 -0.49752 
19 1 40.5398 -29.3439 -0.488893 
12 1 -47.6236 -15.1416 -0.484955 
20 1 47.4123 -15.4568 -0.497325 
11 1 -49.9616 -0.568473 -0.508816 
1 1 49.9966 -0.345265 -0.503009 
10 1 -47.5872 15.2084 -0.483873 
2 1 47.4362 15.8084 -0.495359 
9 1 -40.6802 29.1334 -0.511689 
3 1 40.4181 29.3895 -0.483374 
8 1 -29.2742 40.5531 -0.500967 
7 1 -15.0921 47.7453 -0.504206 
5 1 15.5755 47.4979 -0.497341 
4 1 29.123 40.6013 -0.500012 
6 1 -0.0246184 50.0382 -0.503472 
ITEM: TIMESTEP
5994
ITEM: NUMBER OF ATOMS
20
ITEM: BOX BOUNDS ff ff ff
-7.5000000000000000e+01 7.5000000000000000e+01
-7.5000000000000000e+01 7.5000000000000000e+01
-2.5000000000000000e+00 2.5000000000000000e+00
ITEM: ATOMS id type x y z 
14 1 -29.442 -40.3403 -0.490112 
15 1 -15.3867 -47.6477 -0.485705 
16 1 0.0249877 -50.0694 -0.490683 
17 1 15.1477 -47.6117 -0.512508 
18 1 29.247 -40.5077 -0.49208 
13 1 -40.4715 -29.4766 -0.491458 
19 1 40.4996 -29.2941 -0.501752 
12 1 -47.6489 -15.1246 -0.490892 
20 1 47.4865 -15.4557 -0.496798 
11 1 -49.9791 -0.606201 -0.488006 
1 1 49.988 -0.28951 -0.482932 
10 1 -47.5867 15.235 -0.475536 
2 1 47.3942 15.9058 -0.495068 
9 1 -40.7949 28.9118 -0.499412 
3 1 40.5631 29.3862 -0.503242 
8 1 -29.2884 40.4871 -0.496272 
7 1 -15.0419 47.7134 -0.49729 
5 1 15.6187 47.4894 -0.507691 
4 1 29.0973 40.6195 -0.489964 
6 1 -0.0755061 50.0378 -0.48767 
ITEM: TIMESTEP
6327
ITEM: NUMBER OF ATOMS
20
ITEM: BOX BOUNDS ff ff ff
-7.5000000000000000e+01 7.5000000000000000e+01
-7.5000000000000000e+01 7.5000000000000000e+01
-2.5000000000000000e+00 2.5000000000000000e+00
ITEM: ATOMS id type x y z 
14 1 -29.4453 -40.3366 -0.505998 
15 1 -15.3815 -47.5468 -0.491791 
16 1 -0.0435923 -50.019 -0.459738 
17 1 15.1552 -47.6265 -0.507704 
18 1 29.1762 -40.4879 -0.505925 
13 1 -40.4506 -29.5103 -0.451963 
19 1 40.3862 -29.3426 -0.509326 
12 1 -47.7037 -15.111 -0.482762 
20 1 47.5263 -15.4399 -0.498843 
11 1 -49.9666 -0.500948 -0.49839 
1 1 49.9943 -0.333327 -0.502402 
10 1 -47.5719 15.2199 -0.488786 
2 1 47.4341 15.8998 -0.499564 
9 1 -40.838 28.8351 -0.497911 
3 1 40.537 29.3642 -0.508296 
8 1 -29.2861 40.4944 -0.503888 
7 1 -14.9732 47.6928 -0.496813 
5 1 15.5993 47.4738 -0.494416 
4 1 29.1054 40.4627 -0.493512 
6 1 -0.0115004 49.9971 -0.511248 
ITEM: TIMESTEP
6660
ITEM: NUMBER OF ATOMS
20
ITEM: BOX BOUNDS ff ff ff
-7.5000000000000000e+01 7.5000000000000000e+01
-7.5000000000000000e+01 7.5000000000000000e+01
-2.5000000000000000e+00 2.5000000000000000e+00
ITEM: ATOMS id type x y z 
14 1 -29.3684 -40.3303 -0.504497 
15 1 -15.3545 -47.4934 -0.507582 
16 1 -0.0834614 -49.9632 -0.504116 
17 1 15.2334 -47.7149 -0.507472 
18 1 29.1563 -40.4492 -0.499467 
13 1 -40.4049 -29.3911 -0.500027 
19 1 40.4394 -29.3262 -0.498934 
12 1 -47.7814 -15.0947 -0.500623 
20 1 47.544 -15.4715 -0.466191 
11 1 -50.01 -0.526741 -0.507249 
1 1 50.0026 -0.32303 -0.478169 
10 1 -47.536 15.263 -0.490619 
2 1 47.3699 15.9542 -0.487077 
9 1 -40.8459 28.9019 -0.488 
3 1 40.4832 29.3499 -0.467812 
8 1 -29.2556 40.6005 -0.475974 
7 1 -15.0721 47.6801 -0.485014 
5 1 15.5759 47.4242 -0.492286 
4 1 29.0874 40.4211 -0.488687 
6 1 0.0844382 50.0264 -0.496306 
ITEM: TIMESTEP
6993
ITEM: NUMBER OF ATOMS
20
ITEM: BOX BOUNDS ff ff ff
-7.5000000000000000e+01 7.5000000000000000e+01
-7.5000000000000000e+01 7.5000000000000000e+01
-2.5000000000000000e+00 2.5000000000000000e+00
ITEM: ATOMS id type x y z 
14 1 -29.3894 -40.427 -0.491971 
15 1 -15.2839 -47.4394 -0.483434 
16 1 -0.105129 -49.9178 -0.478255 
17 1 15.2491 -47.5626 -0.493041 
18 1 29.2136 -40.5449 -0.501231 
13 1 -40.5655 -29.4014 -0.498428 
19 1 40.4436 -29.4797 -0.469269 
12 1 -47.8287 -15.0718 -0.487392 
20 1 47.5861 -15.5279 -0.486577 
11 1 -50.0196 -0.555175 -0.499239 
1 1 50.0175 -0.28177 -0.507428 
10 1 -47.5015 15.3262 -0.474471 
2 1 47.3863 15.8933 -0.482886 
9 1 -40.8465 28.9064 -0.486323 
3 1 40.4176 29.3883 -0.458255 
8 1 -29.2195 40.5746 -0.501415 
7 1 -15.0982 47.6361 -0.500588 
5 1 15.4756 47.506 -0.505995 
4 1 29.1414 40.5902 -0.492004 
6 1 0.0235088 49.979 -0.503336 
ITEM: TIMESTEP
7326
ITEM: NUMBER OF ATOMS
20
ITEM: BOX BOUNDS ff ff ff
-7.5000000000000000e+01 7.5000000000000000e+01
-7.5000000000000000e+01 7.5000000000000000e+01
-2.5000000000000000e+00 2.5000000000000000e+00
ITEM: ATOMS id type x y z 
14 1 -29.3282 -40.4127 -0.409491 
15 1 -15.177 -47.4536 -0.49717 
16 1 -0.169912 -49.9794 -0.46607 
17 1 15.2411 -47.4869 -0.495468 
18 1 29.2517 -40.5991 -0.486256 
13 1 -40.561 -29.4681 -0.494749 
19 1 40.5483 -29.4131 -0.488872 
12 1 -47.7336 -15.0799 -0.493193 
20 1 47.6098 -15.543 -0.492126 
11 1 -50.0098 -0.565824 -0.507414 
1 1 50.0293 -0.313365 -0.483027 
10 1 -47.5825 15.2491 -0.487745 
2 1 47.4647 15.7725 -0.501235 
9 1 -40.8122 28.8994 -0.506901 
3 1 40.3523 29.4226 -0.469116 
8 1 -29.2164 40.6631 -0.485076 
7 1 -15.1524 47.6718 -0.507221 
5 1 15.3834 47.4768 -0.505774 
4 1 29.183 40.7447 -0.50326 
6 1 0.00784919 50.0207 -0.485055 
ITEM: TIMESTEP
7659
ITEM: NUMBER OF ATOMS
20
ITEM: BOX BOUNDS ff ff ff
-7.5000000000000000e+01 7.5000000000000000e+01
-7.5000000000000000e+01 7.5000000000000000e+01
-2.5000000000000000e+00 2.5000000000000000e+00
ITEM: ATOMS id type x y z 
14 1 -29.2189 -40.4507 -0.450293 
15 1 -15.2259 -47.5224 -0.463508 
16 1 -0.265095 -50.0157 -0.497279 
17 1 15.2403 -47.575 -0.466203 
18 1 29.1088 -40.5941 -0.499403 
13 1 -40.5217 -29.4268 -0.497788 
19 1 40.4485 -29.417 -0.50522 
12 1 -47.6866 -15.0508 -0.496051 
20 1 47.6289 -15.5525 -0.508394 
11 1 -49.9776 -0.593858 -0.508624 
1 1 50.0612 -0.377245 -0.503691 
10 1 -47.5623 15.2147 -0.500709 
2 1 47.4242 15.7964 -0.508054 
9 1 -40.8409 29.0281 -0.479156 
3 1 40.3789 29.4566 -0.489004 
8 1 -29.1631 40.6687 -0.48469 
7 1 -15.2071 47.6701 -0.510156 
5 1 15.2981 47.6131 -0.505216 
4 1 29.2242 40.8161 -0.502211 
6 1 0.0457799 49.9599 -0.497487 
ITEM: TIMESTEP
7992
ITEM: NUMBER OF ATOMS
20
ITEM: BOX BOUNDS ff ff ff
-7.5000000000000000e+01 7.5000000000000000e+01
-7.5000000000000000e+01 7.5000000000000000e+01
-2.5000000000000000e+00 2.5000000000000000e+00
ITEM: ATOMS id type x y z 
14 1 -29.1971 -40.4976 -0.49144 
15 1 -15.221 -47.5336 -0.492768 
16 1 -0.243173 -50.036 -0.506277 
17 1 15.1631 -47.6422 -0.498385 
18 1 28.9805 -40.5794 -0.490989 
13 1 -40.5254 -29.4004 -0.510377 
19 1 40.4497 -29.3716 -0.479949 
12 1 -47.7425 -15.0198 -0.490097 
20 1 47.6584 -15.576 -0.508538 
11 1 -49.9909 -0.559037 -0.510793 
1 1 50.0686 -0.369171 -0.497314 
10 1 -47.6476 15.2126 -0.503088 
2 1 47.5053 15.6143 -0.499872 
9 1 -40.8265 28.9662 -0.506742 
3 1 40.5145 29.3836 -0.492443 
8 1 -29.2646 40.6104 -0.497212 
7 1 -15.3916 47.5978 -0.495121 
5 1 15.3006 47.6118 -0.496961 
4 1 29.144 40.7437 -0.474229 
6 1 0.0894162 49.9555 -0.495513 
ITEM: TIMESTEP
8325
ITEM: NUMBER OF ATOMS
20
ITEM: BOX BOUNDS ff ff ff
-7.5000000000000000e+01 7.5000000000000000e+01
-7.5000000000000000e+01 7.5000000000000000e+01
-2.5000000000000000e+00 2.5000000000000000e+00
ITEM: ATOMS id type x y z 
14 1 -29.2431 -40.5256 -0.512639 
15 1 -15.1059 -47.5417 -0.486917 
16 1 -0.266258 -50.0729 -0.481592 
17 1 15.1447 -47.5866 -0.496506 
18 1 29.0228 -40.6111 -0.503969 
13 1 -40.4793 -29.362 -0.490554 
19 1 40.455 -29.4967 -0.503089 
12 1 -47.7231 -15.0441 -0.487495 
20 1 47.6444 -15.5698 -0.50643 
11 1 -49.9839 -0.615397 -0.479448 
1 1 49.9672 -0.460417 -0.471318 
10 1 -47.6085 15.2221 -0.491573 
2 1 47.4747 15.7048 -0.483891 
9 1 -40.7652 29.1149 -0.50221 
3 1 40.4762 29.4212 -0.502481 
8 1 -29.2911 40.6555 -0.505832 
7 1 -15.2788 47.5715 -0.48565 
5 1 15.1724 47.6166 -0.506712 
4 1 29.0837 40.7366 -0.500582 
6 1 0.0072924 49.9612 -0.494119 
ITEM: TIMESTEP
8658
ITEM: NUMBER OF ATOMS
20
ITEM: BOX BOUNDS ff ff ff
-7.5000000000000000e+01 7.5000000000000000e+01
-7.5000000000000000e+01 7.5000000000000000e+01
-2.5000000000000000e+00 2.5000000000000000e+00
ITEM: ATOMS id type x y z 
14 1 -29.1394 -40.5764 -0.45154 
15 1 -15.2222 -47.607 -0.493827 
16 1 -0.252958 -50.0408 -0.49922 
17 1 15.1421 -47.5878 -0.495183 
18 1 29.0129 -40.7247 -0.496751 
13 1 -40.5085 -29.4681 -0.482105 
19 1 40.4048 -29.4795 -0.499399 
12 1 -47.6867 -15.0623 -0.500494 
20 1 47.606 -15.4771 -0.503595 
11 1 -49.9704 -0.585514 -0.476342 
1 1 50.0243 -0.398017 -0.495424 
10 1 -47.664 15.1973 -0.502956 
2 1 47.3709 15.7439 -0.501168 
9 1 -40.7717 29.1747 -0.499304 
3 1 40.4706 29.406 -0.495735 
8 1 -29.397 40.4969 -0.453675 
7 1 -15.251 47.5935 -0.464713 
5 1 15.1949 47.6337 -0.510867 
4 1 29.1174 40.7084 -0.501979 
6 1 0.0369515 49.954 -0.503977 
ITEM: TIMESTEP
8991
ITEM: NUMBER OF ATOMS
20
ITEM: BOX BOUNDS ff ff ff
-7.5000000000000000e+01 7.5000000000000000e+01
-7.5000000000000000e+01 7.5000000000000000e+01
-2.5000000000000000e+00 2.5000000000000000e+00
ITEM: ATOMS id type x y z 
14 1 -29.14 -40.6483 -0.504062 
15 1 -15.1462 -47.5852 -0.509598 
16 1 -0.107682 -50.0153 -0.504569 
17 1 15.1673 -47.6323 -0.496261 
18 1 28.9908 -40.6975 -0.492359 
13 1 -40.5391 -29.3861 -0.497442 
19 1 40.3563 -29.4363 -0.499075 
12 1 -47.7476 -15.1543 -0.505311 
20 1 47.564 -15.5866 -0.498716 
11 1 -49.9053 -0.52191 -0.498535 
1 1 50.0579 -0.405089 -0.50135 
10 1 -47.5504 15.2114 -0.490519 
2 1 47.3951 15.7302 -0.497133 
9 1 -40.7474 29.079 -0.493286 
3 1 40.3595 29.4506 -0.503511 
8 1 -29.3124 40.5684 -0.491542 
7 1 -15.1527 47.6744 -0.507889 
5 1 15.0988 47.6693 -0.505106 
4 1 29.2309 40.7495 -0.496153 
6 1 0.119973 49.9847 -0.498429 
ITEM: TIMESTEP
9324
ITEM: NUMBER OF ATOMS
20
ITEM: BOX BOUNDS ff ff ff
-7.5000000000000000e+01 7.5000000000000000e+01
-7.5000000000000000e+01 7.5000000000000000e+01
-2.5000000000000000e+00 2.5000000000000000e+00
ITEM: ATOMS id type x y z 
14 1 -29.023 -40.6923 -0.480637 
15 1 -15.1639 -47.6002 -0.484959 
16 1 -0.102883 -50.0231 -0.456567 
17 1 15.2346 -47.6259 -0.490724 
18 1 28.9346 -40.8358 -0.471756 
13 1 -40.5046 -29.4107 -0.495351 
19 1 40.33 -29.5656 -0.482351 
12 1 -47.7056 -15.1942 -0.503305 
20 1 47.5447 -15.5701 -0.494821 
11 1 -49.9302 -0.423328 -0.474301 
1 1 50.0857 -0.49159 -0.507595 
10 1 -47.6224 15.2155 -0.490712 
2 1 47.3045 15.8202 -0.507978 
9 1 -40.7288 29.0468 -0.497959 
3 1 40.3325 29.5119 -0.503055 
8 1 -29.2923 40.5346 -0.466677 
7 1 -15.2703 47.6231 -0.476646 
5 1 15.0574 47.6145 -0.500833 
4 1 29.2471 40.7198 -0.50223 
6 1 0.13228 50.0596 -0.498623 
ITEM: TIMESTEP
9657
ITEM: NUMBER OF ATOMS
20
ITEM: BOX BOUNDS ff ff ff
-7.5000000000000000e+01 7.5000000000000000e+01
-7.5000000000000000e+01 7.5000000000000000e+01
-2.5000000000000000e+00 2.5000000000000000e+00
ITEM: ATOMS id type x y z 
14 1 -28.9685 -40.7013 -0.504097 
15 1 -15.2724 -47.5445 -0.496608 
16 1 -0.0807163 -49.9888 -0.460151 
17 1 15.2739 -47.6521 -0.502482 
18 1 28.9845 -40.9856 -0.465981 
13 1 -40.4877 -29.4415 -0.501012 
19 1 40.3559 -29.6691 -0.491591 
12 1 -47.6723 -15.2501 -0.500976 
20 1 47.4621 -15.5054 -0.497413 
11 1 -49.924 -0.45113 -0.482315 
1 1 50.1053 -0.547081 -0.49666 
10 1 -47.6643 15.1621 -0.493233 
2 1 47.3557 15.9263 -0.488164 
9 1 -40.846 29.0452 -0.496335 
3 1 40.3533 29.4519 -0.471437 
8 1 -29.2002 40.4597 -0.483659 
7 1 -15.2411 47.6584 -0.497275 
5 1 15.0376 47.5783 -0.502271 
4 1 29.0917 40.8118 -0.479797 
6 1 0.266693 50.0941 -0.504597 
ITEM: TIMESTEP
9990
ITEM: NUMBER OF ATOMS
20
ITEM: BOX BOUNDS ff ff ff
-7.5000000000000000e+01 7.5000000000000000e+01
-7.5000000000000000e+01 7.5000000000000000e+01
-2.5000000000000000e+00 2.5000000000000000e+00
ITEM: ATOMS id type x y z 
14 1 -28.9574 -40.6183 -0.498181 
15 1 -15.2754 -47.5253 -0.483469 
16 1 -0.1102 -49.9943 -0.492897 
17 1 15.3244 -47.6772 -0.504328 
18 1 28.9171 -40.9821 -0.491257 
13 1 -40.6271 -29.3563 -0.49944 
19 1 40.2925 -29.7288 -0.49213 
12 1 -47.5754 -15.3277 -0.470889 
20 1 47.6078 -15.5163 -0.502808 
11 1 -49.9688 -0.50371 -0.503198 
1 1 50.066 -0.449075 -0.491308 
10 1 -47.6142 15.3075 -0.504234 
2 1 47.3907 15.8774 -0.489983 
9 1 -40.7793 29.0718 -0.507423 
3 1 40.4205 29.4438 -0.49301 
8 1 -29.279 40.5532 -0.489411 
7 1 -15.1853 47.6169 -0.50785 
5 1 15.0456 47.6369 -0.500989 
4 1 29.1325 40.7883 -0.499949 
6 1 0.233525 50.0711 -0.490718 
ITEM: TIMESTEP
10323
ITEM: NUMBER OF ATOMS
20
ITEM: BOX BOUNDS ff ff ff
-7.5000000000000000e+01 7.5000000000000000e+01
-7.5000000000000000e+01 7.5000000000000000e+01
-2.5000000000000000e+00 2.5000000000000000e+00
ITEM: ATOMS id type x y z 
14 1 -29.001 -40.6578 -0.47595 
15 1 -15.3637 -47.4488 -0.492883 
16 1 -0.0973386 -49.9865 -0.492039 
17 1 15.2141 -47.6753 -0.493264 
18 1 28.9426 -40.9647 -0.497403 
13 1 -40.6527 -29.2839 -0.504928 
19 1 40.2817 -29.6803 -0.497919 
12 1 -47.6185 -15.15 -0.500558 
20 1 47.5594 -15.4836 -0.45997 
11 1 -49.961 -0.711011 -0.504629 
1 1 49.9702 -0.502856 -0.483086 
10 1 -47.5617 15.2917 -0.493082 
2 1 47.3962 15.8073 -0.503075 
9 1 -40.858 29.11 -0.49009 
3 1 40.3414 29.3173 -0.456141 
8 1 -29.2299 40.542 -0.484393 
7 1 -15.1978 47.5922 -0.506919 
5 1 15.049 47.7028 -0.503821 
4 1 29.093 40.7008 -0.507402 
6 1 0.251566 50.0806 -0.493475 
ITEM: TIMESTEP
10656
ITEM: NUMBER OF ATOMS
20
ITEM: BOX BOUNDS ff ff ff
-7.5000000000000000e+01 7.5000000000000000e+01
-7.5000000000000000e+01 7.5000000000000000e+01
-2.5000000000000000e+00 2.5000000000000000e+00
ITEM: ATOMS id type x y z 
14 1 -28.9606 -40.8093 -0.49946 
15 1 -15.5138 -47.4809 -0.499392 
16 1 -0.0989856 -49.9329 -0.4959 
17 1 15.2166 -47.6988 -0.504351 
18 1 28.8854 -40.9073 -0.501895 
13 1 -40.63 -29.2657 -0.508811 
19 1 40.2565 -29.6794 -0.469459 
12 1 -47.5917 -15.1958 -0.496411 
20 1 47.4851 -15.6081 -0.504643 
11 1 -50.0259 -0.805512 -0.495753 
1 1 50.041 -0.609259 -0.503685 
10 1 -47.4903 15.3287 -0.483537 
2 1 47.3729 15.7238 -0.491777 
9 1 -40.706 29.1682 -0.504307 
3 1 40.3159 29.3311 -0.471526 
8 1 -29.2421 40.4625 -0.498457 
7 1 -15.0824 47.6102 -0.498361 
5 1 14.941 47.7753 -0.510031 
4 1 29.1259 40.6914 -0.502938 
6 1 0.355097 50.0134 -0.495385 
ITEM: TIMESTEP
10989
ITEM: NUMBER OF ATOMS
20
ITEM: BOX BOUNDS ff ff ff
-7.5000000000000000e+01 7.5000000000000000e+01
-7.5000000000000000e+01 7.5000000000000000e+01
-2.5000000000000000e+00 2.5000000000000000e+00
ITEM: ATOMS id type x y z 
14 1 -28.9989 -40.6886 -0.496666 
15 1 -15.5922 -47.5514 -0.499186 
16 1 -0.127903 -49.958 -0.500968 
17 1 15.3014 -47.7465 -0.508083 
18 1 28.8502 -40.9508 -0.502759 
13 1 -40.5247 -29.2132 -0.481311 
19 1 40.1368 -29.7078 -0.477812 
12 1 -47.5548 -15.1024 -0.483797 
20 1 47.4409 -15.6873 -0.498787 
11 1 -49.9644 -0.842031 -0.491035 
1 1 50.0667 -0.509997 -0.501282 
10 1 -47.6308 15.2812 -0.503344 
2 1 47.3713 15.7742 -0.507726 
9 1 -40.6994 29.2089 -0.483613 
3 1 40.3639 29.3862 -0.499317 
8 1 -29.2977 40.4868 -0.502196 
7 1 -15.0831 47.6801 -0.497672 