units micro
atom_style hybrid sphere paramagnet bond
boundary p p f

neighbor 4.0 nsq
pair_style hybrid lj/cut/dipole/cut 1 20
bond_style biharmonic

### ---Create Particles and Region--- ###
read_data lammps_files/test_serial/test.lmpdata
  orthogonal box = (-27 -27 -2) to (27 27 2)
  1 by 1 by 1 MPI processor grid
  reading atoms ...
  144 atoms
  0 = max # of 1-2 neighbors
  0 = max # of 1-3 neighbors
  0 = max # of 1-4 neighbors
  1 = max # of special neighbors
  special bonds CPU = 0.00011301 secs
  read_data CPU = 0.000850916 secs
group Atoms type 1
144 atoms in group Atoms
mass * 1

### ---Variables--- ###

## magnetic field

variable Bmag atom 1.3307269489288908e-05
variable freq atom 9.999999999999999e-06
variable theta atom 0.2617993877991494

variable fieldx atom v_Bmag*sin(v_freq*time*2*PI)*sin(v_theta)
variable fieldy atom v_Bmag*cos(v_freq*time*2*PI)*sin(v_theta)
variable fieldz atom v_Bmag*cos(v_theta)

### ---Fixes--- ###

fix 	1 Atoms setdipole v_fieldx v_fieldy v_fieldz 0

fix 	2 Atoms bd 300 0.001 818015

fix     3 Atoms addforce 0 0 -0.00011264159515495175
fix 	6 Atoms wall/lj126 zlo EDGE 0.01 1.247258205396475  1.4 zhi EDGE 0.01 1.247258205396475  1.4

### ---Run Commands--- ###
timestep 	100.0
dump 	3 all custom 333 lammps_files/test_serial/test.lammpstrj id type x	 y	 z
thermo_style 	custom step atoms
thermo 	100
run 	600000
Neighbor list info ...
  update every 1 steps, delay 10 steps, check yes
  max neighbors/atom: 2000, page size: 100000
  master list distance cutoff = 24
  ghost atom cutoff = 24
  2 neighbor lists, perpetual/occasional/extra = 2 0 0
  (1) pair lj/cut/dipole/cut, perpetual, half/full from (2)
      attributes: half, newton on
      pair build: halffull/newton
      stencil: none
      bin: none
  (2) fix setdipole, perpetual
      attributes: full, newton on
      pair build: full/nsq
      stencil: none
      bin: none
Per MPI rank memory allocation (min/avg/max) = 7.339 | 7.339 | 7.339 Mbytes
Step Atoms 
       0      144 
     100      144 
     200      144 
     300      144 
     400      144 
     500      144 
     600      144 
     700      144 
     800      144 
     900      144 
    1000      144 
    1100      144 
    1200      144 
    1300      144 
    1400      144 
    1500      144 
    1600      144 
    1700      144 
    1800      144 
    1900      144 
    2000      144 
    2100      144 
    2200      144 
    2300      144 
    2400      144 
    2500      144 
    2600      144 
    2700      144 
    2800      144 
    2900      144 
    3000      144 
    3100      144 
    3200      144 
    3300      144 
    3400      144 
    3500      144 
    3600      144 
    3700      144 
    3800      144 
    3900      144 
    4000      144 
    4100      144 
    4200      144 
    4300      144 
    4400      144 
    4500      144 
    4600      144 
    4700      144 
    4800      144 
    4900      144 
    5000      144 
    5100      144 
    5200      144 
    5300      144 
    5400      144 
    5500      144 
    5600      144 
    5700      144 
    5800      144 
    5900      144 
    6000      144 
    6100      144 
    6200      144 
    6300      144 
    6400      144 
    6500      144 
    6600      144 
    6700      144 
    6800      144 
    6900      144 
    7000      144 
    7100      144 
    7200      144 
    7300      144 
    7400      144 
    7500      144 
    7600      144 
    7700      144 
    7800      144 
    7900      144 
    8000      144 
    8100      144 
    8200      144 
    8300      144 
    8400      144 
    8500      144 
    8600      144 
    8700      144 
    8800      144 
    8900      144 
    9000      144 
    9100      144 
    9200      144 
    9300      144 
    9400      144 
    9500      144 
    9600      144 
    9700      144 
    9800      144 
    9900      144 
   10000      144 
   10100      144 
   10200      144 
   10300      144 
   10400      144 
   10500      144 
   10600      144 
   10700      144 
   10800      144 
   10900      144 
   11000      144 
   11100      144 
   11200      144 
   11300      144 
   11400      144 
   11500      144 
   11600      144 
   11700      144 
   11800      144 
   11900      144 
   12000      144 
   12100      144 
   12200      144 
   12300      144 
   12400      144 
   12500      144 
   12600      144 
   12700      144 
   12800      144 
   12900      144 
   13000      144 
   13100      144 
   13200      144 
   13300      144 
   13400      144 
   13500      144 
   13600      144 
   13700      144 
   13800      144 
   13900      144 
   14000      144 
   14100      144 
   14200      144 
   14300      144 
   14400      144 
   14500      144 
   14600      144 
   14700      144 
   14800      144 
   14900      144 
   15000      144 
   15100      144 
   15200      144 
   15300      144 
   15400      144 
   15500      144 
   15600      144 
   15700      144 
   15800      144 
   15900      144 
   16000      144 
   16100      144 
   16200      144 
   16300      144 
   16400      144 
   16500      144 
   16600      144 
   16700      144 
   16800      144 
   16900      144 
   17000      144 
   17100      144 
   17200      144 
   17300      144 
   17400      144 
   17500      144 
   17600      144 
   17700      144 
   17800      144 
   17900      144 
   18000      144 
   18100      144 
   18200      144 
   18300      144 
   18400      144 
   18500      144 
   18600      144 
   18700      144 
   18800      144 
   18900      144 
   19000      144 
   19100      144 
   19200      144 
   19300      144 
   19400      144 
   19500      144 
   19600      144 
   19700      144 
   19800      144 
   19900      144 
   20000      144 
   20100      144 
   20200      144 
   20300      144 
   20400      144 
   20500      144 
   20600      144 
   20700      144 
   20800      144 
   20900      144 
   21000      144 
   21100      144 
   21200      144 
   21300      144 
   21400      144 
   21500      144 
   21600      144 
   21700      144 
   21800      144 
   21900      144 
   22000      144 
   22100      144 
   22200      144 
   22300      144 
   22400      144 
   22500      144 
   22600      144 
   22700      144 
   22800      144 
   22900      144 
   23000      144 
   23100      144 
   23200      144 
   23300      144 
   23400      144 
   23500      144 
   23600      144 
   23700      144 
   23800      144 
   23900      144 
   24000      144 
   24100      144 
   24200      144 
   24300      144 
   24400      144 
   24500      144 
   24600      144 
   24700      144 
   24800      144 
   24900      144 
   25000      144 
   25100      144 
   25200      144 
   25300      144 
   25400      144 
   25500      144 
   25600      144 
   25700      144 
   25800      144 
   25900      144 
   26000      144 
   26100      144 
   26200      144 
   26300      144 
   26400      144 
   26500      144 
   26600      144 
   26700      144 
   26800      144 
   26900      144 
   27000      144 
   27100      144 
   27200      144 
   27300      144 
   27400      144 
   27500      144 
   27600      144 
   27700      144 
   27800      144 
   27900      144 
   28000      144 
   28100      144 
   28200      144 
   28300      144 
   28400      144 
   28500      144 
   28600      144 
   28700      144 
   28800      144 
   28900      144 
   29000      144 
   29100      144 
   29200      144 
   29300      144 
   29400      144 
   29500      144 
   29600      144 
   29700      144 
   29800      144 
   29900      144 
   30000      144 
   30100      144 
   30200      144 
   30300      144 
   30400      144 
   30500      144 
   30600      144 
   30700      144 
   30800      144 
   30900      144 
   31000      144 
   31100      144 
   31200      144 
   31300      144 
   31400      144 
   31500      144 
   31600      144 
   31700      144 
   31800      144 
   31900      144 
   32000      144 
   32100      144 
   32200      144 
   32300      144 
   32400      144 
   32500      144 
   32600      144 
   32700      144 
   32800      144 
   32900      144 
   33000      144 
   33100      144 
   33200      144 
   33300      144 
   33400      144 
   33500      144 
   33600      144 
   33700      144 
   33800      144 
   33900      144 
   34000      144 
   34100      144 
   34200      144 
   34300      144 
   34400      144 
   34500      144 
   34600      144 
   34700      144 
   34800      144 
   34900      144 
   35000      144 
   35100      144 
   35200      144 
   35300      144 
   35400      144 
   35500      144 
   35600      144 
   35700      144 
   35800      144 
   35900      144 
   36000      144 
   36100      144 
   36200      144 
   36300      144 
   36400      144 
   36500      144 
   36600      144 
   36700      144 
   36800      144 
   36900      144 
   37000      144 
   37100      144 
   37200      144 
   37300      144 
   37400      144 
   37500      144 
   37600      144 
   37700      144 
   37800      144 
   37900      144 
   38000      144 
   38100      144 
   38200      144 
   38300      144 
   38400      144 
   38500      144 
   38600      144 
   38700      144 
   38800      144 
   38900      144 
   39000      144 
   39100      144 
   39200      144 
   39300      144 
   39400      144 
   39500      144 
   39600      144 
   39700      144 
   39800      144 
   39900      144 
   40000      144 
   40100      144 
   40200      144 
   40300      144 
   40400      144 
   40500      144 
   40600      144 
   40700      144 
   40800      144 
   40900      144 
   41000      144 
   41100      144 
   41200      144 
   41300      144 
   41400      144 
   41500      144 
   41600      144 
   41700      144 
   41800      144 
   41900      144 
   42000      144 
   42100      144 
   42200      144 
   42300      144 
   42400      144 
   42500      144 
   42600      144 
   42700      144 
   42800      144 
   42900      144 
   43000      144 
   43100      144 
   43200      144 
   43300      144 
   43400      144 
   43500      144 
   43600      144 
   43700      144 
   43800      144 
   43900      144 
   44000      144 
   44100      144 
   44200      144 
   44300      144 
   44400      144 
   44500      144 
   44600      144 
   44700      144 
   44800      144 
   44900      144 
   45000      144 
   45100      144 
   45200      144 
   45300      144 
   45400      144 
   45500      144 
   45600      144 
   45700      144 
   45800      144 
   45900      144 
   46000      144 
   46100      144 
   46200      144 
   46300      144 
   46400      144 
   46500      144 
   46600      144 
   46700      144 
   46800      144 
   46900      144 
   47000      144 
   47100      144 
   47200      144 
   47300      144 
   47400      144 
   47500      144 
   47600      144 
   47700      144 
   47800      144 
   47900      144 
   48000      144 
   48100      144 
   48200      144 
   48300      144 
   48400      144 
   48500      144 
   48600      144 
   48700      144 
   48800      144 
   48900      144 
   49000      144 
   49100      144 
   49200      144 
   49300      144 
   49400      144 
   49500      144 
   49600      144 
   49700      144 
   49800      144 
   49900      144 
   50000      144 
   50100      144 
   50200      144 
   50300      144 
   50400      144 
   50500      144 
   50600      144 
   50700      144 
   50800      144 
   50900      144 
   51000      144 
   51100      144 
   51200      144 
   51300      144 
   51400      144 
   51500      144 
   51600      144 
   51700      144 
   51800      144 
   51900      144 
   52000      144 
   52100      144 
   52200      144 
   52300      144 
   52400      144 
   52500      144 
   52600      144 
   52700      144 
   52800      144 
   52900      144 
   53000      144 
   53100      144 
   53200      144 
   53300      144 
   53400      144 
   53500      144 
   53600      144 
   53700      144 
   53800      144 
   53900      144 
   54000      144 
   54100      144 
   54200      144 
   54300      144 
   54400      144 
   54500      144 
   54600      144 
   54700      144 
   54800      144 
   54900      144 
   55000      144 
   55100      144 
   55200      144 
   55300      144 
   55400      144 
   55500      144 
   55600      144 
   55700      144 
   55800      144 
   55900      144 
   56000      144 
   56100      144 
   56200      144 
   56300      144 
   56400      144 
   56500      144 
   56600      144 
   56700      144 
   56800      144 
   56900      144 
   57000      144 
   57100      144 
   57200      144 
   57300      144 
   57400      144 
   57500      144 
   57600      144 
   57700      144 
   57800      144 
   57900      144 
   58000      144 
   58100      144 
   58200      144 
   58300      144 
   58400      144 
   58500      144 
   58600      144 
   58700      144 
   58800      144 
   58900      144 
   59000      144 
   59100      144 
   59200      144 
   59300      144 
   59400      144 
   59500      144 
   59600      144 
   59700      144 
   59800      144 
   59900      144 
   60000      144 
   60100      144 
   60200      144 
   60300      144 
   60400      144 
   60500      144 
   60600      144 
   60700      144 
   60800      144 
   60900      144 
   61000      144 
   61100      144 
   61200      144 
   61300      144 
   61400      144 
   61500      144 
   61600      144 
   61700      144 
   61800      144 
   61900      144 
   62000      144 
   62100      144 
   62200      144 
   62300      144 
   62400      144 
   62500      144 
   62600      144 
   62700      144 
   62800      144 
   62900      144 
   63000      144 
   63100      144 
   63200      144 
   63300      144 
   63400      144 
   63500      144 
   63600      144 
   63700      144 
   63800      144 
   63900      144 
   64000      144 
   64100      144 
   64200      144 
   64300      144 
   64400      144 
   64500      144 
   64600      144 
   64700      144 
   64800      144 
   64900      144 
   65000      144 
   65100      144 
   65200      144 
   65300      144 
   65400      144 
   65500      144 
   65600      144 
   65700      144 
   65800      144 
   65900      144 
   66000      144 
   66100      144 
   66200      144 
   66300      144 
   66400      144 
   66500      144 
   66600      144 
   66700      144 
   66800      144 
   66900      144 
   67000      144 
   67100      144 
   67200      144 
   67300      144 
   67400      144 
   67500      144 
   67600      144 
   67700      144 
   67800      144 
   67900      144 
   68000      144 
   68100      144 
   68200      144 
   68300      144 
   68400      144 
   68500      144 
   68600      144 
   68700      144 
   68800      144 
   68900      144 
   69000      144 
   69100      144 
   69200      144 
   69300      144 
   69400      144 
   69500      144 
   69600      144 
   69700      144 
   69800      144 
   69900      144 
   70000      144 
   70100      144 
   70200      144 
   70300      144 
   70400      144 
   70500      144 
   70600      144 
   70700      144 
   70800      144 
   70900      144 
   71000      144 
   71100      144 
   71200      144 
   71300      144 
   71400      144 
   71500      144 
   71600      144 
   71700      144 
   71800      144 
   71900      144 
   72000      144 
   72100      144 
   72200      144 
   72300      144 
   72400      144 
   72500      144 
   72600      144 
   72700      144 
   72800      144 
   72900      144 
   73000      144 
   73100      144 
   73200      144 
   73300      144 
   73400      144 
   73500      144 
   73600      144 
   73700      144 
   73800      144 
   73900      144 
   74000      144 
   74100      144 
   74200      144 
   74300      144 
   74400      144 
   74500      144 
   74600      144 
   74700      144 
   74800      144 
   74900      144 
   75000      144 
   75100      144 
   75200      144 
   75300      144 
   75400      144 
   75500      144 
   75600      144 
   75700      144 
   75800      144 
   75900      144 
   76000      144 
   76100      144 
   76200      144 
   76300      144 
   76400      144 
   76500      144 
   76600      144 
   76700      144 
   76800      144 
   76900      144 
   77000      144 
   77100      144 
   77200      144 
   77300      144 
   77400      144 
   77500      144 
   77600      144 
   77700      144 
   77800      144 
   77900      144 
   78000      144 
   78100      144 
   78200      144 
   78300      144 
   78400      144 
   78500      144 
   78600      144 
   78700      144 
   78800      144 
   78900      144 
   79000      144 
   79100      144 
   79200      144 
   79300      144 
   79400      144 
   79500      144 
   79600      144 
   79700      144 
   79800      144 
   79900      144 
   80000      144 
   80100      144 
   80200      144 
   80300      144 
   80400      144 
   80500      144 
   80600      144 
   80700      144 
   80800      144 
   80900      144 
   81000      144 
   81100      144 
   81200      144 
   81300      144 
   81400      144 
   81500      144 
   81600      144 
   81700      144 
   81800      144 
   81900      144 
   82000      144 
   82100      144 
   82200      144 
   82300      144 
   82400      144 
   82500      144 
   82600      144 
   82700      144 
   82800      144 
   82900      144 
   83000      144 
   83100      144 
   83200      144 
   83300      144 
   83400      144 
   83500      144 
   83600      144 
   83700      144 
   83800      144 
   83900      144 
   84000      144 
   84100      144 
   84200      144 
   84300      144 
   84400      144 
   84500      144 
   84600      144 
   84700      144 
   84800      144 
   84900      144 
   85000      144 
   85100      144 
   85200      144 
   85300      144 
   85400      144 
   85500      144 
   85600      144 
   85700      144 
   85800      144 
   85900      144 
   86000      144 
   86100      144 
   86200      144 
   86300      144 
   86400      144 
   86500      144 
   86600      144 
   86700      144 
   86800      144 
   86900      144 
   87000      144 
   87100      144 
   87200      144 
   87300      144 
   87400      144 
   87500      144 
   87600      144 
   87700      144 
   87800      144 
   87900      144 
   88000      144 
   88100      144 
   88200      144 
   88300      144 
   88400      144 
   88500      144 
   88600      144 
   88700      144 
   88800      144 
   88900      144 
   89000      144 
   89100      144 
   89200      144 
   89300      144 
   89400      144 
   89500      144 
   89600      144 
   89700      144 
   89800      144 
   89900      144 
   90000      144 
   90100      144 
   90200      144 
   90300      144 
   90400      144 
   90500      144 
   90600      144 
   90700      144 
   90800      144 
   90900      144 
   91000      144 
   91100      144 
   91200      144 
   91300      144 
   91400      144 
   91500      144 
   91600      144 
   91700      144 
   91800      144 
   91900      144 
   92000      144 
   92100      144 
   92200      144 
   92300      144 
   92400      144 
   92500      144 
   92600      144 
   92700      144 
   92800      144 
   92900      144 
   93000      144 
   93100      144 
   93200      144 
   93300      144 
   93400      144 
   93500      144 
   93600      144 
   93700      144 
   93800      144 
   93900      144 
   94000      144 
   94100      144 
   94200      144 
   94300      144 
   94400      144 
   94500      144 
   94600      144 
   94700      144 
   94800      144 
   94900      144 
   95000      144 
   95100      144 
   95200      144 
   95300      144 
   95400      144 
   95500      144 
   95600      144 
   95700      144 
   95800      144 
   95900      144 
   96000      144 
   96100      144 
   96200      144 
   96300      144 
   96400      144 
   96500      144 
   96600      144 
   96700      144 
   96800      144 
   96900      144 
   97000      144 
   97100      144 
   97200      144 
   97300      144 
   97400      144 
   97500      144 
   97600      144 
   97700      144 
   97800      144 
   97900      144 
   98000      144 
   98100      144 
   98200      144 
   98300      144 
   98400      144 
   98500      144 
   98600      144 
   98700      144 
   98800      144 
   98900      144 
   99000      144 
   99100      144 
   99200      144 
   99300      144 
   99400      144 
   99500      144 
   99600      144 
   99700      144 
   99800      144 
   99900      144 
  100000      144 
  100100      144 
  100200      144 
  100300      144 
  100400      144 
  100500      144 
  100600      144 
  100700      144 
  100800      144 
  100900      144 
  101000      144 
  101100      144 
  101200      144 
  101300      144 
  101400      144 
  101500      144 
  101600      144 
  101700      144 
  101800      144 
  101900      144 
  102000      144 
  102100      144 
  102200      144 
  102300      144 
  102400      144 
  102500      144 
  102600      144 
  102700      144 
  102800      144 
  102900      144 
  103000      144 
  103100      144 
  103200      144 
  103300      144 
  103400      144 
  103500      144 
  103600      144 
  103700      144 
  103800      144 
  103900      144 
  104000      144 
  104100      144 
  104200      144 
  104300      144 
  104400      144 
  104500      144 
  104600      144 
  104700      144 
  104800      144 
  104900      144 
  105000      144 
  105100      144 
  105200      144 
  105300      144 
  105400      144 
  105500      144 
  105600      144 
  105700      144 
  105800      144 
  105900      144 
  106000      144 
  106100      144 
  106200      144 
  106300      144 
  106400      144 
  106500      144 
  106600      144 
  106700      144 
  106800      144 
  106900      144 
  107000      144 
  107100      144 
  107200      144 
  107300      144 
  107400      144 
  107500      144 
  107600      144 
  107700      144 
  107800      144 
  107900      144 
  108000      144 
  108100      144 
  108200      144 
  108300      144 
  108400      144 
  108500      144 
  108600      144 
  108700      144 
  108800      144 
  108900      144 
  109000      144 
  109100      144 
  109200      144 
  109300      144 
  109400      144 
  109500      144 
  109600      144 
  109700      144 
  109800      144 
  109900      144 
  110000      144 
  110100      144 
  110200      144 
  110300      144 
  110400      144 
  110500      144 
  110600      144 
  110700      144 
  110800      144 
  110900      144 
  111000      144 
  111100      144 
  111200      144 
  111300      144 
  111400      144 
  111500      144 
  111600      144 
  111700      144 
  111800      144 
  111900      144 
  112000      144 
  112100      144 
  112200      144 
  112300      144 
  112400      144 
  112500      144 
  112600      144 
  112700      144 
  112800      144 
  112900      144 
  113000      144 
  113100      144 
  113200      144 
  113300      144 
  113400      144 
  113500      144 
  113600      144 
  113700      144 
  113800      144 
  113900      144 
  114000      144 
  114100      144 
  114200      144 
  114300      144 
  114400      144 
  114500      144 
  114600      144 
  114700      144 
  114800      144 
  114900      144 
  115000      144 
  115100      144 
  115200      144 
  115300      144 
  115400      144 
  115500      144 
  115600      144 
  115700      144 
  115800      144 
  115900      144 
  116000      144 
  116100      144 
  116200      144 
  116300      144 
  116400      144 
  116500      144 
  116600      144 
  116700      144 
  116800      144 
  116900      144 
  117000      144 
  117100      144 
  117200      144 
  117300      144 
  117400      144 
  117500      144 
  117600      144 
  117700      144 
  117800      144 
  117900      144 
  118000      144 
  118100      144 
  118200      144 
  118300      144 
  118400      144 
  118500      144 
  118600      144 
  118700      144 
  118800      144 
  118900      144 
  119000      144 
  119100      144 
  119200      144 
  119300      144 
  119400      144 
  119500      144 
  119600      144 
  119700      144 
  119800      144 
  119900      144 
  120000      144 
  120100      144 
  120200      144 
  120300      144 
  120400      144 
  120500      144 
  120600      144 
  120700      144 
  120800      144 
  120900      144 
  121000      144 
  121100      144 
  121200      144 
  121300      144 
  121400      144 
  121500      144 
  121600      144 
  121700      144 
  121800      144 
  121900      144 
  122000      144 
  122100      144 
  122200      144 
  122300      144 
  122400      144 
  122500      144 
  122600      144 
  122700      144 
  122800      144 
  122900      144 
  123000      144 
  123100      144 
  123200      144 
  123300      144 
  123400      144 
  123500      144 
  123600      144 
  123700      144 
  123800      144 
  123900      144 
  124000      144 
  124100      144 
  124200      144 
  124300      144 
  124400      144 
  124500      144 
  124600      144 
  124700      144 
  124800      144 
  124900      144 
  125000      144 
  125100      144 
  125200      144 
  125300      144 
  125400      144 
  125500      144 
  125600      144 
  125700      144 
  125800      144 
  125900      144 
  126000      144 
  126100      144 
  126200      144 
  126300      144 
  126400      144 
  126500      144 
  126600      144 
  126700      144 
  126800      144 
  126900      144 
  127000      144 
  127100      144 
  127200      144 
  127300      144 
  127400      144 
  127500      144 
  127600      144 
  127700      144 
  127800      144 
  127900      144 
  128000      144 
  128100      144 
  128200      144 
  128300      144 
  128400      144 
  128500      144 
  128600      144 
  128700      144 
  128800      144 
  128900      144 
  129000      144 
  129100      144 
  129200      144 
  129300      144 
  129400      144 
  129500      144 
  129600      144 
  129700      144 
  129800      144 
  129900      144 
  130000      144 
  130100      144 
  130200      144 
  130300      144 
  130400      144 
  130500      144 
  130600      144 
  130700      144 
  130800      144 
  130900      144 
  131000      144 
  131100      144 
  131200      144 
  131300      144 
  131400      144 
  131500      144 
  131600      144 
  131700      144 
  131800      144 
  131900      144 
  132000      144 
  132100      144 
  132200      144 
  132300      144 
  132400      144 
  132500      144 
  132600      144 
  132700      144 
  132800      144 
  132900      144 
  133000      144 
  133100      144 
  133200      144 
  133300      144 
  133400      144 
  133500      144 
  133600      144 
  133700      144 
  133800      144 
  133900      144 
  134000      144 
  134100      144 
  134200      144 
  134300      144 
  134400      144 
  134500      144 
  134600      144 
  134700      144 
  134800      144 
  134900      144 
  135000      144 
  135100      144 
  135200      144 
  135300      144 
  135400      144 
  135500      144 
  135600      144 
  135700      144 
  135800      144 
  135900      144 
  136000      144 
  136100      144 
  136200      144 
  136300      144 
  136400      144 
  136500      144 
  136600      144 
  136700      144 
  136800      144 
  136900      144 
  137000      144 
  137100      144 
  137200      144 
  137300      144 
  137400      144 
  137500      144 
  137600      144 
  137700      144 
  137800      144 
  137900      144 
  138000      144 
  138100      144 
  138200      144 
  138300      144 
  138400      144 
  138500      144 
  138600      144 
  138700      144 
  138800      144 
  138900      144 
  139000      144 
  139100      144 
  139200      144 
  139300      144 
  139400      144 
  139500      144 
  139600      144 
  139700      144 
  139800      144 
  139900      144 
  140000      144 
  140100      144 
  140200      144 
  140300      144 
  140400      144 
  140500      144 
  140600      144 
  140700      144 
  140800      144 
  140900      144 
  141000      144 
  141100      144 
  141200      144 
  141300      144 
  141400      144 
  141500      144 
  141600      144 
  141700      144 
  141800      144 
  141900      144 
  142000      144 
  142100      144 
  142200      144 
  142300      144 
  142400      144 
  142500      144 
  142600      144 
  142700      144 
  142800      144 
  142900      144 
  143000      144 
  143100      144 
  143200      144 
  143300      144 
  143400      144 
  143500      144 
  143600      144 
  143700      144 
  143800      144 
  143900      144 
  144000      144 
  144100      144 
  144200      144 
  144300      144 
  144400      144 
  144500      144 
  144600      144 
  144700      144 
  144800      144 
  144900      144 
  145000      144 
  145100      144 
  145200      144 
  145300      144 
  145400      144 
  145500      144 
  145600      144 
  145700      144 
  145800      144 
  145900      144 
  146000      144 
  146100      144 
  146200      144 
  146300      144 
  146400      144 
  146500      144 
  146600      144 
  146700      144 
  146800      144 
  146900      144 
  147000      144 
  147100      144 
  147200      144 
  147300      144 
  147400      144 
  147500      144 
  147600      144 
  147700      144 
  147800      144 
  147900      144 
  148000      144 
  148100      144 
  148200      144 
  148300      144 
  148400      144 
  148500      144 
  148600      144 
  148700      144 
  148800      144 
  148900      144 
  149000      144 
  149100      144 
  149200      144 
  149300      144 
  149400      144 
  149500      144 
  149600      144 
  149700      144 
  149800      144 
  149900      144 
  150000      144 
  150100      144 
  150200      144 
  150300      144 
  150400      144 
  150500      144 
  150600      144 
  150700      144 
  150800      144 
  150900      144 
  151000      144 
  151100      144 
  151200      144 
  151300      144 
  151400      144 
  151500      144 
  151600      144 
  151700      144 
  151800      144 
  151900      144 
  152000      144 
  152100      144 
  152200      144 
  152300      144 
  152400      144 
  152500      144 
  152600      144 
  152700      144 
  152800      144 
  152900      144 
  153000      144 
  153100      144 
  153200      144 
  153300      144 
  153400      144 
  153500      144 
  153600      144 
  153700      144 
  153800      144 
  153900      144 
  154000      144 
  154100      144 
  154200      144 
  154300      144 
  154400      144 
  154500      144 
  154600      144 
  154700      144 
  154800      144 
  154900      144 
  155000      144 
  155100      144 
  155200      144 
  155300      144 
  155400      144 
  155500      144 
  155600      144 
  155700      144 
  155800      144 
  155900      144 
  156000      144 
  156100      144 
  156200      144 
  156300      144 
  156400      144 
  156500      144 
  156600      144 
  156700      144 
  156800      144 
  156900      144 
  157000      144 
  157100      144 
  157200      144 
  157300      144 
  157400      144 
  157500      144 
  157600      144 
  157700      144 
  157800      144 
  157900      144 
  158000      144 
  158100      144 
  158200      144 
  158300      144 
  158400      144 
  158500      144 
  158600      144 
  158700      144 
  158800      144 
  158900      144 
  159000      144 
  159100      144 
  159200      144 
  159300      144 
  159400      144 
  159500      144 
  159600      144 
  159700      144 
  159800      144 
  159900      144 
  160000      144 
  160100      144 
  160200      144 
  160300      144 
  160400      144 
  160500      144 
  160600      144 
  160700      144 
  160800      144 
  160900      144 
  161000      144 
  161100      144 
  161200      144 
  161300      144 
  161400      144 
  161500      144 
  161600      144 
  161700      144 
  161800      144 
  161900      144 
  162000      144 
  162100      144 
  162200      144 
  162300      144 
  162400      144 
  162500      144 
  162600      144 
  162700      144 
  162800      144 
  162900      144 
  163000      144 
  163100      144 
  163200      144 
  163300      144 
  163400      144 
  163500      144 
  163600      144 
  163700      144 
  163800      144 
  163900      144 
  164000      144 
  164100      144 
  164200      144 
  164300      144 
  164400      144 
  164500      144 
  164600      144 
  164700      144 
  164800      144 
  164900      144 
  165000      144 
  165100      144 
  165200      144 
  165300      144 
  165400      144 
  165500      144 
  165600      144 
  165700      144 
  165800      144 
  165900      144 
  166000      144 
  166100      144 
  166200      144 
  166300      144 
  166400      144 
  166500      144 
  166600      144 
  166700      144 
  166800      144 
  166900      144 
  167000      144 
  167100      144 
  167200      144 
  167300      144 
  167400      144 
  167500      144 
  167600      144 
  167700      144 
  167800      144 
  167900      144 
  168000      144 
  168100      144 
  168200      144 
  168300      144 
  168400      144 
  168500      144 
  168600      144 
  168700      144 
  168800      144 
  168900      144 
  169000      144 
  169100      144 
  169200      144 
  169300      144 
  169400      144 
  169500      144 
  169600      144 
  169700      144 
  169800      144 
  169900      144 
  170000      144 
  170100      144 
  170200      144 
  170300      144 
  170400      144 
  170500      144 
  170600      144 
  170700      144 
  170800      144 
  170900      144 
  171000      144 
  171100      144 
  171200      144 
  171300      144 
  171400      144 
  171500      144 
  171600      144 
  171700      144 
  171800      144 
  171900      144 
  172000      144 
  172100      144 
  172200      144 
  172300      144 
  172400      144 
  172500      144 
  172600      144 
  172700      144 
  172800      144 
  172900      144 
  173000      144 
  173100      144 
  173200      144 
  173300      144 
  173400      144 
  173500      144 
  173600      144 
  173700      144 
  173800      144 
  173900      144 
  174000      144 
  174100      144 
  174200      144 
  174300      144 
  174400      144 
  174500      144 
  174600      144 
  174700      144 
  174800      144 
  174900      144 
  175000      144 
  175100      144 
  175200      144 
  175300      144 
  175400      144 
  175500      144 
  175600      144 
  175700      144 
  175800      144 
  175900      144 
  176000      144 
  176100      144 
  176200      144 
  176300      144 
  176400      144 
  176500      144 
  176600      144 
  176700      144 
  176800      144 
  176900      144 
  177000      144 
  177100      144 
  177200      144 
  177300      144 
  177400      144 
  177500      144 
  177600      144 
  177700      144 
  177800      144 
  177900      144 
  178000      144 
  178100      144 
  178200      144 
  178300      144 
  178400      144 
  178500      144 
  178600      144 
  178700      144 
  178800      144 
  178900      144 
  179000      144 
  179100      144 
  179200      144 
  179300      144 
  179400      144 
  179500      144 
  179600      144 
  179700      144 
  179800      144 
  179900      144 
  180000      144 
  180100      144 
  180200      144 
  180300      144 
  180400      144 
  180500      144 
  180600      144 
  180700      144 
  180800      144 
  180900      144 
  181000      144 
  181100      144 
  181200      144 
  181300      144 
  181400      144 
  181500      144 
  181600      144 
  181700      144 
  181800      144 
  181900      144 
  182000      144 
  182100      144 
  182200      144 
  182300      144 
  182400      144 
  182500      144 
  182600      144 
  182700      144 
  182800      144 
  182900      144 
  183000      144 
  183100      144 
  183200      144 
  183300      144 
  183400      144 
  183500      144 
  183600      144 
  183700      144 
  183800      144 
  183900      144 
  184000      144 
  184100      144 
  184200      144 
  184300      144 
  184400      144 
  184500      144 
  184600      144 
  184700      144 
  184800      144 
  184900      144 
  185000      144 
  185100      144 
  185200      144 
  185300      144 
  185400      144 
  185500      144 
  185600      144 
  185700      144 
  185800      144 
  185900      144 
  186000      144 
  186100      144 
  186200      144 
  186300      144 
  186400      144 
  186500      144 
  186600      144 
  186700      144 
  186800      144 
  186900      144 
  187000      144 
  187100      144 
  187200      144 
  187300      144 
  187400      144 
  187500      144 
  187600      144 
  187700      144 
  187800      144 
  187900      144 
  188000      144 
  188100      144 
  188200      144 
  188300      144 
  188400      144 
  188500      144 
  188600      144 
  188700      144 
  188800      144 
  188900      144 
  189000      144 
  189100      144 
  189200      144 
  189300      144 
  189400      144 
  189500      144 
  189600      144 
  189700      144 
  189800      144 
  189900      144 
  190000      144 
  190100      144 
  190200      144 
  190300      144 
  190400      144 
  190500      144 
  190600      144 
  190700      144 
  190800      144 
  190900      144 
  191000      144 
  191100      144 
  191200      144 
  191300      144 
  191400      144 
  191500      144 
  191600      144 
  191700      144 
  191800      144 
  191900      144 
  192000      144 
  192100      144 
  192200      144 
  192300      144 
  192400      144 
  192500      144 
  192600      144 
  192700      144 
  192800      144 
  192900      144 
  193000      144 
  193100      144 
  193200      144 
  193300      144 
  193400      144 
  193500      144 
  193600      144 
  193700      144 
  193800      144 
  193900      144 
  194000      144 
  194100      144 
  194200      144 
  194300      144 
  194400      144 
  194500      144 
  194600      144 
  194700      144 
  194800      144 
  194900      144 
  195000      144 
  195100      144 
  195200      144 
  195300      144 
  195400      144 
  195500      144 
  195600      144 
  195700      144 
  195800      144 
  195900      144 
  196000      144 
  196100      144 
  196200      144 
  196300      144 
  196400      144 
  196500      144 
  196600      144 
  196700      144 
  196800      144 
  196900      144 
  197000      144 
  197100      144 
  197200      144 
  197300      144 
  197400      144 
  197500      144 
  197600      144 
  197700      144 
  197800      144 
  197900      144 
  198000      144 
  198100      144 
  198200      144 
  198300      144 
  198400      144 
  198500      144 
  198600      144 
  198700      144 
  198800      144 
  198900      144 
  199000      144 
  199100      144 
  199200      144 
  199300      144 
  199400      144 
  199500      144 
  199600      144 
  199700      144 
  199800      144 
  199900      144 
  200000      144 
  200100      144 
  200200      144 
  200300      144 
  200400      144 
  200500      144 
  200600      144 
  200700      144 
  200800      144 
  200900      144 
  201000      144 
  201100      144 
  201200      144 
  201300      144 
  201400      144 
  201500      144 
  201600      144 
  201700      144 
  201800      144 
  201900      144 
  202000      144 
  202100      144 
  202200      144 
  202300      144 
  202400      144 
  202500      144 
  202600      144 
  202700      144 
  202800      144 
  202900      144 
  203000      144 
  203100      144 
  203200      144 
  203300      144 
  203400      144 
  203500      144 
  203600      144 
  203700      144 
  203800      144 
  203900      144 
  204000      144 
  204100      144 
  204200      144 
  204300      144 
  204400      144 
  204500      144 
  204600      144 
  204700      144 
  204800      144 
  204900      144 
  205000      144 
  205100      144 
  205200      144 
  205300      144 
  205400      144 
  205500      144 
  205600      144 
  205700      144 
  205800      144 
  205900      144 
  206000      144 
  206100      144 
  206200      144 
  206300      144 
  206400      144 
  206500      144 
  206600      144 
  206700      144 
  206800      144 
  206900      144 
  207000      144 
  207100      144 
  207200      144 
  207300      144 
  207400      144 
  207500      144 
  207600      144 
  207700      144 
  207800      144 
  207900      144 
  208000      144 
  208100      144 
  208200      144 
  208300      144 
  208400      144 
  208500      144 
  208600      144 
  208700      144 
  208800      144 
  208900      144 
  209000      144 
  209100      144 
  209200      144 
  209300      144 
  209400      144 
  209500      144 
  209600      144 
  209700      144 
  209800      144 
  209900      144 
  210000      144 
  210100      144 
  210200      144 
  210300      144 
  210400      144 
  210500      144 
  210600      144 
  210700      144 
  210800      144 
  210900      144 
  211000      144 
  211100      144 
  211200      144 
  211300      144 
  211400      144 
  211500      144 
  211600      144 
  211700      144 
  211800      144 
  211900      144 
  212000      144 
  212100      144 
  212200      144 
  212300      144 
  212400      144 
  212500      144 
  212600      144 
  212700      144 
  212800      144 
  212900      144 
  213000      144 
  213100      144 
  213200      144 
  213300      144 
  213400      144 
  213500      144 
  213600      144 
  213700      144 
  213800      144 
  213900      144 
  214000      144 
  214100      144 
  214200      144 
  214300      144 
  214400      144 
  214500      144 
  214600      144 
  214700      144 
  214800      144 
  214900      144 
  215000      144 
  215100      144 
  215200      144 
  215300      144 
  215400      144 
  215500      144 
  215600      144 
  215700      144 
  215800      144 
  215900      144 
  216000      144 
  216100      144 
  216200      144 
  216300      144 
  216400      144 
  216500      144 
  216600      144 
  216700      144 
  216800      144 
  216900      144 
  217000      144 
  217100      144 
  217200      144 
  217300      144 
  217400      144 
  217500      144 
  217600      144 
  217700      144 
  217800      144 
  217900      144 
  218000      144 
  218100      144 
  218200      144 
  218300      144 
  218400      144 
  218500      144 
  218600      144 
  218700      144 
  218800      144 
  218900      144 
  219000      144 
  219100      144 
  219200      144 
  219300      144 
  219400      144 
  219500      144 
  219600      144 
  219700      144 
  219800      144 
  219900      144 
  220000      144 
  220100      144 
  220200      144 
  220300      144 
  220400      144 
  220500      144 
  220600      144 
  220700      144 
  220800      144 
  220900      144 
  221000      144 
  221100      144 
  221200      144 
  221300      144 
  221400      144 
  221500      144 
  221600      144 
  221700      144 
  221800      144 
  221900      144 
  222000      144 
  222100      144 
  222200      144 
  222300      144 
  222400      144 
  222500      144 
  222600      144 
  222700      144 
  222800      144 
  222900      144 
  223000      144 
  223100      144 
  223200      144 
  223300      144 
  223400      144 
  223500      144 
  223600      144 
  223700      144 
  223800      144 
  223900      144 
  224000      144 
  224100      144 
  224200      144 
  224300      144 
  224400      144 
  224500      144 
  224600      144 
  224700      144 
  224800      144 
  224900      144 
  225000      144 
  225100      144 
  225200      144 
  225300      144 
  225400      144 
  225500      144 
  225600      144 
  225700      144 
  225800      144 
  225900      144 
  226000      144 
  226100      144 
  226200      144 
  226300      144 
  226400      144 
  226500      144 
  226600      144 
  226700      144 
  226800      144 
  226900      144 
  227000      144 
  227100      144 
  227200      144 
  227300      144 
  227400      144 
  227500      144 
  227600      144 
  227700      144 
  227800      144 
  227900      144 
  228000      144 
  228100      144 
  228200      144 
  228300      144 
  228400      144 
  228500      144 
  228600      144 
  228700      144 
  228800      144 
  228900      144 
  229000      144 
  229100      144 
  229200      144 
  229300      144 
  229400      144 
  229500      144 
  229600      144 
  229700      144 
  229800      144 
  229900      144 
  230000      144 
  230100      144 
  230200      144 
  230300      144 
  230400      144 
  230500      144 
  230600      144 
  230700      144 
  230800      144 
  230900      144 
  231000      144 
  231100      144 
  231200      144 
  231300      144 
  231400      144 
  231500      144 
  231600      144 
  231700      144 
  231800      144 
  231900      144 
  232000      144 
  232100      144 
  232200      144 
  232300      144 
  232400      144 
  232500      144 
  232600      144 
  232700      144 
  232800      144 
  232900      144 
  233000      144 
  233100      144 
  233200      144 
  233300      144 
  233400      144 
  233500      144 
  233600      144 
  233700      144 
  233800      144 
  233900      144 
  234000      144 
  234100      144 
  234200      144 
  234300      144 
  234400      144 
  234500      144 
  234600      144 
  234700      144 
  234800      144 
  234900      144 
  235000      144 
  235100      144 
  235200      144 
  235300      144 
  235400      144 
  235500      144 
  235600      144 
  235700      144 
  235800      144 
  235900      144 
  236000      144 
  236100      144 
  236200      144 
  236300      144 
  236400      144 
  236500      144 
  236600      144 
  236700      144 
  236800      144 
  236900      144 
  237000      144 
  237100      144 
  237200      144 
  237300      144 
  237400      144 
  237500      144 
  237600      144 
  237700      144 
  237800      144 
  237900      144 
  238000      144 
  238100      144 
  238200      144 
  238300      144 
  238400      144 
  238500      144 
  238600      144 
  238700      144 
  238800      144 
  238900      144 
  239000      144 
  239100      144 
  239200      144 
  239300      144 
  239400      144 
  239500      144 
  239600      144 
  239700      144 
  239800      144 
  239900      144 
  240000      144 
  240100      144 
  240200      144 
  240300      144 
  240400      144 
  240500      144 
  240600      144 
  240700      144 
  240800      144 
  240900      144 
  241000      144 
  241100      144 
  241200      144 
  241300      144 
  241400      144 
  241500      144 
  241600      144 
  241700      144 
  241800      144 
  241900      144 
  242000      144 
  242100      144 
  242200      144 
  242300      144 
  242400      144 
  242500      144 
  242600      144 
  242700      144 
  242800      144 
  242900      144 
  243000      144 
  243100      144 
  243200      144 
  243300      144 
  243400      144 
  243500      144 
  243600      144 
  243700      144 
  243800      144 
  243900      144 
  244000      144 
  244100      144 
  244200      144 
  244300      144 
  244400      144 
  244500      144 
  244600      144 
  244700      144 
  244800      144 
  244900      144 
  245000      144 
  245100      144 
  245200      144 
  245300      144 
  245400      144 
  245500      144 
  245600      144 
  245700      144 
  245800      144 
  245900      144 
  246000      144 
  246100      144 
  246200      144 
  246300      144 
  246400      144 
  246500      144 
  246600      144 
  246700      144 
  246800      144 
  246900      144 
  247000      144 
  247100      144 
  247200      144 
  247300      144 
  247400      144 
  247500      144 
  247600      144 
  247700      144 
  247800      144 
  247900      144 
  248000      144 
  248100      144 
  248200      144 
  248300      144 
  248400      144 
  248500      144 
  248600      144 
  248700      144 
  248800      144 
  248900      144 
  249000      144 
  249100      144 
  249200      144 
  249300      144 
  249400      144 
  249500      144 
  249600      144 
  249700      144 
  249800      144 
  249900      144 
  250000      144 
  250100      144 
  250200      144 
  250300      144 
  250400      144 
  250500      144 
  250600      144 
  250700      144 
  250800      144 
  250900      144 
  251000      144 
  251100      144 
  251200      144 
  251300      144 
  251400      144 
  251500      144 
  251600      144 
  251700      144 
  251800      144 
  251900      144 
  252000      144 
  252100      144 
  252200      144 
  252300      144 
  252400      144 
  252500      144 
  252600      144 
  252700      144 
  252800      144 
  252900      144 
  253000      144 
  253100      144 
  253200      144 
  253300      144 
  253400      144 
  253500      144 
  253600      144 
  253700      144 
  253800      144 
  253900      144 
  254000      144 
  254100      144 
  254200      144 
  254300      144 
  254400      144 
  254500      144 
  254600      144 
  254700      144 
  254800      144 
  254900      144 
  255000      144 
  255100      144 
  255200      144 
  255300      144 
  255400      144 
  255500      144 
  255600      144 
  255700      144 
  255800      144 
  255900      144 
  256000      144 
  256100      144 
  256200      144 
  256300      144 
  256400      144 
  256500      144 
  256600      144 
  256700      144 
  256800      144 
  256900      144 
  257000      144 
  257100      144 
  257200      144 
  257300      144 
  257400      144 
  257500      144 
  257600      144 
  257700      144 
  257800      144 
  257900      144 
  258000      144 
  258100      144 
  258200      144 
  258300      144 
  258400      144 
  258500      144 
  258600      144 
  258700      144 
  258800      144 
  258900      144 
  259000      144 
  259100      144 
  259200      144 
  259300      144 
  259400      144 
  259500      144 
  259600      144 
  259700      144 
  259800      144 
  259900      144 
  260000      144 
  260100      144 
  260200      144 
  260300      144 
  260400      144 
  260500      144 
  260600      144 
  260700      144 
  260800      144 
  260900      144 
  261000      144 
  261100      144 
  261200      144 
  261300      144 
  261400      144 
  261500      144 
  261600      144 
  261700      144 
  261800      144 
  261900      144 
  262000      144 
  262100      144 
  262200      144 
  262300      144 
  262400      144 
  262500      144 
  262600      144 
  262700      144 
  262800      144 
  262900      144 
  263000      144 
  263100      144 
  263200      144 
  263300      144 
  263400      144 
  263500      144 
  263600      144 
  263700      144 
  263800      144 
  263900      144 
  264000      144 
  264100      144 
  264200      144 
  264300      144 
  264400      144 
  264500      144 
  264600      144 
  264700      144 
  264800      144 
  264900      144 
  265000      144 
  265100      144 
  265200      144 
  265300      144 
  265400      144 
  265500      144 
  265600      144 
  265700      144 
  265800      144 
  265900      144 
  266000      144 
  266100      144 
  266200      144 
  266300      144 
  266400      144 
  266500      144 
  266600      144 
  266700      144 
  266800      144 
  266900      144 
  267000      144 
  267100      144 
  267200      144 
  267300      144 
  267400      144 
  267500      144 
  267600      144 
  267700      144 
  267800      144 
  267900      144 
  268000      144 
  268100      144 
  268200      144 
  268300      144 
  268400      144 
  268500      144 
  268600      144 
  268700      144 
  268800      144 
  268900      144 
  269000      144 
  269100      144 
  269200      144 
  269300      144 
  269400      144 
  269500      144 
  269600      144 
  269700      144 
  269800      144 
  269900      144 
  270000      144 
  270100      144 
  270200      144 
  270300      144 
  270400      144 
  270500      144 
  270600      144 
  270700      144 
  270800      144 
  270900      144 
  271000      144 
  271100      144 
  271200      144 
  271300      144 
  271400      144 
  271500      144 
  271600      144 
  271700      144 
  271800      144 
  271900      144 
  272000      144 
  272100      144 
  272200      144 
  272300      144 
  272400      144 
  272500      144 
  272600      144 
  272700      144 
  272800      144 
  272900      144 
  273000      144 
  273100      144 
  273200      144 
  273300      144 
  273400      144 
  273500      144 
  273600      144 
  273700      144 
  273800      144 
  273900      144 
  274000      144 
  274100      144 
  274200      144 
  274300      144 
  274400      144 
  274500      144 
  274600      144 
  274700      144 
  274800      144 
  274900      144 
  275000      144 
  275100      144 
  275200      144 
  275300      144 
  275400      144 
  275500      144 
  275600      144 
  275700      144 
  275800      144 
  275900      144 
  276000      144 
  276100      144 
  276200      144 
  276300      144 
  276400      144 
  276500      144 
  276600      144 
  276700      144 
  276800      144 
  276900      144 
  277000      144 
  277100      144 
  277200      144 
  277300      144 
  277400      144 
  277500      144 
  277600      144 
  277700      144 
  277800      144 
  277900      144 
  278000      144 
  278100      144 
  278200      144 
  278300      144 
  278400      144 
  278500      144 
  278600      144 
  278700      144 
  278800      144 
  278900      144 
  279000      144 
  279100      144 
  279200      144 
  279300      144 
  279400      144 
  279500      144 
  279600      144 
  279700      144 
  279800      144 
  279900      144 
  280000      144 
  280100      144 
  280200      144 
  280300      144 
  280400      144 
  280500      144 
  280600      144 
  280700      144 
  280800      144 
  280900      144 
  281000      144 
  281100      144 
  281200      144 
  281300      144 
  281400      144 
  281500      144 
  281600      144 
  281700      144 
  281800      144 
  281900      144 
  282000      144 
  282100      144 
  282200      144 
  282300      144 
  282400      144 
  282500      144 
  282600      144 
  282700      144 
  282800      144 
  282900      144 
  283000      144 
  283100      144 
  283200      144 
  283300      144 
  283400      144 
  283500      144 
  283600      144 
  283700      144 
  283800      144 
  283900      144 
  284000      144 
  284100      144 
  284200      144 
  284300      144 
  284400      144 
  284500      144 
  284600      144 
  284700      144 
  284800      144 
  284900      144 
  285000      144 
  285100      144 
  285200      144 
  285300      144 
  285400      144 
  285500      144 
  285600      144 
  285700      144 
  285800      144 
  285900      144 
  286000      144 
  286100      144 
  286200      144 
  286300      144 
  286400      144 
  286500      144 
  286600      144 
  286700      144 
  286800      144 
  286900      144 
  287000      144 
  287100      144 
  287200      144 
  287300      144 
  287400      144 
  287500      144 
  287600      144 
  287700      144 
  287800      144 
  287900      144 
  288000      144 
  288100      144 
  288200      144 
  288300      144 
  288400      144 
  288500      144 
  288600      144 
  288700      144 
  288800      144 
  288900      144 
  289000      144 
  289100      144 
  289200      144 
  289300      144 
  289400      144 
  289500      144 
  289600      144 
  289700      144 
  289800      144 
  289900      144 
  290000      144 
  290100      144 
  290200      144 
  290300      144 
  290400      144 
  290500      144 
  290600      144 
  290700      144 
  290800      144 
  290900      144 
  291000      144 
  291100      144 
  291200      144 
  291300      144 
  291400      144 
  291500      144 
  291600      144 
  291700      144 
  291800      144 
  291900      144 
  292000      144 
  292100      144 
  292200      144 
  292300      144 
  292400      144 
  292500      144 
  292600      144 
  292700      144 
  292800      144 
  292900      144 
  293000      144 
  293100      144 
  293200      144 
  293300      144 
  293400      144 
  293500      144 
  293600      144 
  293700      144 
  293800      144 
  293900      144 
  294000      144 
  294100      144 
  294200      144 
  294300      144 
  294400      144 
  294500      144 
  294600      144 
  294700      144 
  294800      144 
  294900      144 
  295000      144 
  295100      144 
  295200      144 
  295300      144 
  295400      144 
  295500      144 
  295600      144 
  295700      144 
  295800      144 
  295900      144 
  296000      144 
  296100      144 
  296200      144 
  296300      144 
  296400      144 
  296500      144 
  296600      144 
  296700      144 
  296800      144 
  296900      144 
  297000      144 
  297100      144 
  297200      144 
  297300      144 
  297400      144 
  297500      144 
  297600      144 
  297700      144 
  297800      144 
  297900      144 
  298000      144 
  298100      144 
  298200      144 
  298300      144 
  298400      144 
  298500      144 
  298600      144 
  298700      144 
  298800      144 
  298900      144 
  299000      144 
  299100      144 
  299200      144 
  299300      144 
  299400      144 
  299500      144 
  299600      144 
  299700      144 
  299800      144 
  299900      144 
  300000      144 
  300100      144 
  300200      144 
  300300      144 
  300400      144 
  300500      144 
  300600      144 
  300700      144 
  300800      144 
  300900      144 
  301000      144 
  301100      144 
  301200      144 
  301300      144 
  301400      144 
  301500      144 
  301600      144 
  301700      144 
  301800      144 
  301900      144 
  302000      144 
  302100      144 
  302200      144 
  302300      144 
  302400      144 
  302500      144 
  302600      144 
  302700      144 
  302800      144 
  302900      144 
  303000      144 
  303100      144 
  303200      144 
  303300      144 
  303400      144 
  303500      144 
  303600      144 
  303700      144 
  303800      144 
  303900      144 
  304000      144 
  304100      144 
  304200      144 
  304300      144 
  304400      144 
  304500      144 
  304600      144 
  304700      144 
  304800      144 
  304900      144 
  305000      144 
  305100      144 
  305200      144 
  305300      144 
  305400      144 
  305500      144 
  305600      144 
  305700      144 
  305800      144 
  305900      144 
  306000      144 
  306100      144 
  306200      144 
  306300      144 
  306400      144 
  306500      144 
  306600      144 
  306700      144 
  306800      144 
  306900      144 
  307000      144 
  307100      144 
  307200      144 
  307300      144 
  307400      144 
  307500      144 
  307600      144 
  307700      144 
  307800      144 
  307900      144 
  308000      144 
  308100      144 
  308200      144 
  308300      144 
  308400      144 
  308500      144 
  308600      144 
  308700      144 
  308800      144 
  308900      144 
  309000      144 
  309100      144 
  309200      144 
  309300      144 
  309400      144 
  309500      144 
  309600      144 
  309700      144 
  309800      144 
  309900      144 
  310000      144 
  310100      144 
  310200      144 
  310300      144 
  310400      144 
  310500      144 
  310600      144 
  310700      144 
  310800      144 
  310900      144 
  311000      144 
  311100      144 
  311200      144 
  311300      144 
  311400      144 
  311500      144 
  311600      144 
  311700      144 
  311800      144 
  311900      144 
  312000      144 
  312100      144 
  312200      144 
  312300      144 
  312400      144 
  312500      144 
  312600      144 
  312700      144 
  312800      144 
  312900      144 
  313000      144 
  313100      144 
  313200      144 
  313300      144 
  313400      144 
  313500      144 
  313600      144 
  313700      144 
  313800      144 
  313900      144 
  314000      144 
  314100      144 
  314200      144 
  314300      144 
  314400      144 
  314500      144 
  314600      144 
  314700      144 
  314800      144 
  314900      144 
  315000      144 
  315100      144 
  315200      144 
  315300      144 
  315400      144 
  315500      144 
  315600      144 
  315700      144 
  315800      144 
  315900      144 
  316000      144 
  316100      144 
  316200      144 
  316300      144 
  316400      144 
  316500      144 
  316600      144 
  316700      144 
  316800      144 
  316900      144 
  317000      144 
  317100      144 
  317200      144 
  317300      144 
  317400      144 
  317500      144 
  317600      144 
  317700      144 
  317800      144 
  317900      144 
  318000      144 
  318100      144 
  318200      144 
  318300      144 
  318400      144 
  318500      144 
  318600      144 
  318700      144 
  318800      144 
  318900      144 
  319000      144 
  319100      144 
  319200      144 
  319300      144 
  319400      144 
  319500      144 
  319600      144 
  319700      144 
  319800      144 
  319900      144 
  320000      144 
  320100      144 
  320200      144 
  320300      144 
  320400      144 
  320500      144 
  320600      144 
  320700      144 
  320800      144 
  320900      144 
  321000      144 
  321100      144 
  321200      144 
  321300      144 
  321400      144 
  321500      144 
  321600      144 
  321700      144 
  321800      144 
  321900      144 
  322000      144 
  322100      144 
  322200      144 
  322300      144 
  322400      144 
  322500      144 
  322600      144 
  322700      144 
  322800      144 
  322900      144 
  323000      144 
  323100      144 
  323200      144 
  323300      144 
  323400      144 
  323500      144 
  323600      144 
  323700      144 
  323800      144 
  323900      144 
  324000      144 
  324100      144 
  324200      144 
  324300      144 
  324400      144 
  324500      144 
  324600      144 
  324700      144 
  324800      144 
  324900      144 
  325000      144 
  325100      144 
  325200      144 
  325300      144 
  325400      144 
  325500      144 
  325600      144 
  325700      144 
  325800      144 
  325900      144 
  326000      144 
  326100      144 
  326200      144 
  326300      144 
  326400      144 
  326500      144 
  326600      144 
  326700      144 
  326800      144 
  326900      144 
  327000      144 
  327100      144 
  327200      144 
  327300      144 
  327400      144 
  327500      144 
  327600      144 
  327700      144 
  327800      144 
  327900      144 
  328000      144 
  328100      144 
  328200      144 
  328300      144 
  328400      144 
  328500      144 
  328600      144 
  328700      144 
  328800      144 
  328900      144 
  329000      144 
  329100      144 
  329200      144 
  329300      144 
  329400      144 
  329500      144 
  329600      144 
  329700      144 
  329800      144 
  329900      144 
  330000      144 
  330100      144 
  330200      144 
  330300      144 
  330400      144 
  330500      144 
  330600      144 
  330700      144 
  330800      144 
  330900      144 
  331000      144 
  331100      144 
  331200      144 
  331300      144 
  331400      144 
  331500      144 
  331600      144 
  331700      144 
  331800      144 
  331900      144 
  332000      144 
  332100      144 
  332200      144 
  332300      144 
  332400      144 
  332500      144 
  332600      144 
  332700      144 
  332800      144 
  332900      144 
  333000      144 
  333100      144 
  333200      144 
  333300      144 
  333400      144 
  333500      144 
  333600      144 
  333700      144 
  333800      144 
  333900      144 
  334000      144 
  334100      144 
  334200      144 
  334300      144 
  334400      144 
  334500      144 
  334600      144 
  334700      144 
  334800      144 
  334900      144 
  335000      144 
  335100      144 
  335200      144 
  335300      144 
  335400      144 
  335500      144 
  335600      144 
  335700      144 
  335800      144 
  335900      144 
  336000      144 
  336100      144 
  336200      144 
  336300      144 
  336400      144 
  336500      144 
  336600      144 
  336700      144 
  336800      144 
  336900      144 
  337000      144 
  337100      144 
  337200      144 
  337300      144 
  337400      144 
  337500      144 
  337600      144 
  337700      144 
  337800      144 
  337900      144 
  338000      144 
  338100      144 
  338200      144 
  338300      144 
  338400      144 
  338500      144 
  338600      144 
  338700      144 
  338800      144 
  338900      144 
  339000      144 
  339100      144 
  339200      144 
  339300      144 
  339400      144 
  339500      144 
  339600      144 
  339700      144 
  339800      144 
  339900      144 
  340000      144 
  340100      144 
  340200      144 
  340300      144 
  340400      144 
  340500      144 
  340600      144 
  340700      144 
  340800      144 
  340900      144 
  341000      144 
  341100      144 
  341200      144 
  341300      144 
  341400      144 
  341500      144 
  341600      144 
  341700      144 
  341800      144 
  341900      144 
  342000      144 
  342100      144 
  342200      144 
  342300      144 
  342400      144 
  342500      144 
  342600      144 
  342700      144 
  342800      144 
  342900      144 
  343000      144 
  343100      144 
  343200      144 
  343300      144 
  343400      144 
  343500      144 
  343600      144 
  343700      144 
  343800      144 
  343900      144 
  344000      144 
  344100      144 
  344200      144 
  344300      144 
  344400      144 
  344500      144 
  344600      144 
  344700      144 
  344800      144 
  344900      144 
  345000      144 
  345100      144 
  345200      144 
  345300      144 
  345400      144 
  345500      144 
  345600      144 
  345700      144 
  345800      144 
  345900      144 
  346000      144 
  346100      144 
  346200      144 
  346300      144 
  346400      144 
  346500      144 
  346600      144 
  346700      144 
  346800      144 
  346900      144 
  347000      144 
  347100      144 
  347200      144 
  347300      144 
  347400      144 
  347500      144 
  347600      144 
  347700      144 
  347800      144 
  347900      144 
  348000      144 
  348100      144 
  348200      144 
  348300      144 
  348400      144 
  348500      144 
  348600      144 
  348700      144 
  348800      144 
  348900      144 
  349000      144 
  349100      144 
  349200      144 
  349300      144 
  349400      144 
  349500      144 
  349600      144 
  349700      144 
  349800      144 
  349900      144 
  350000      144 
  350100      144 
  350200      144 
  350300      144 
  350400      144 
  350500      144 
  350600      144 
  350700      144 
  350800      144 
  350900      144 
  351000      144 
  351100      144 
  351200      144 
  351300      144 
  351400      144 
  351500      144 
  351600      144 
  351700      144 
  351800      144 
  351900      144 
  352000      144 
  352100      144 
  352200      144 
  352300      144 
  352400      144 
  352500      144 
  352600      144 
  352700      144 
  352800      144 
  352900      144 
  353000      144 
  353100      144 
  353200      144 
  353300      144 
  353400      144 
  353500      144 
  353600      144 
  353700      144 
  353800      144 
  353900      144 
  354000      144 
  354100      144 
  354200      144 
  354300      144 
  354400      144 
  354500      144 
  354600      144 
  354700      144 
  354800      144 
  354900      144 
  355000      144 
  355100      144 
  355200      144 
  355300      144 
  355400      144 
  355500      144 
  355600      144 
  355700      144 
  355800      144 
  355900      144 
  356000      144 
  356100      144 
  356200      144 
  356300      144 
  356400      144 
  356500      144 
  356600      144 
  356700      144 
  356800      144 
  356900      144 
  357000      144 
  357100      144 
  357200      144 
  357300      144 
  357400      144 
  357500      144 
  357600      144 
  357700      144 
  357800      144 
  357900      144 
  358000      144 
  358100      144 
  358200      144 
  358300      144 
  358400      144 
  358500      144 
  358600      144 
  358700      144 
  358800      144 
  358900      144 
  359000      144 
  359100      144 
  359200      144 
  359300      144 
  359400      144 
  359500      144 
  359600      144 
  359700      144 
  359800      144 
  359900      144 
  360000      144 
  360100      144 
  360200      144 
  360300      144 
  360400      144 
  360500      144 
  360600      144 
  360700      144 
  360800      144 
  360900      144 
  361000      144 
  361100      144 
  361200      144 
  361300      144 
  361400      144 
  361500      144 
  361600      144 
  361700      144 
  361800      144 
  361900      144 
  362000      144 
  362100      144 
  362200      144 
  362300      144 
  362400      144 
  362500      144 
  362600      144 
  362700      144 
  362800      144 
  362900      144 
  363000      144 
  363100      144 
  363200      144 
  363300      144 
  363400      144 
  363500      144 
  363600      144 
  363700      144 
  363800      144 
  363900      144 
  364000      144 
  364100      144 
  364200      144 
  364300      144 
  364400      144 
  364500      144 
  364600      144 
  364700      144 
  364800      144 
  364900      144 
  365000      144 
  365100      144 
  365200      144 
  365300      144 
  365400      144 
  365500      144 
  365600      144 
  365700      144 
  365800      144 
  365900      144 
  366000      144 
  366100      144 
  366200      144 
  366300      144 
  366400      144 
  366500      144 
  366600      144 
  366700      144 
  366800      144 
  366900      144 
  367000      144 
  367100      144 
  367200      144 
  367300      144 
  367400      144 
  367500      144 
  367600      144 
  367700      144 
  367800      144 
  367900      144 
  368000      144 
  368100      144 
  368200      144 
  368300      144 
  368400      144 
  368500      144 
  368600      144 
  368700      144 
  368800      144 
  368900      144 
  369000      144 
  369100      144 
  369200      144 
  369300      144 
  369400      144 
  369500      144 
  369600      144 
  369700      144 
  369800      144 
  369900      144 
  370000      144 
  370100      144 
  370200      144 
  370300      144 
  370400      144 
  370500      144 
  370600      144 
  370700      144 
  370800      144 
  370900      144 
  371000      144 
  371100      144 
  371200      144 
  371300      144 
  371400      144 
  371500      144 
  371600      144 
  371700      144 
  371800      144 
  371900      144 
  372000      144 
  372100      144 
  372200      144 
  372300      144 
  372400      144 
  372500      144 
  372600      144 
  372700      144 
  372800      144 
  372900      144 
  373000      144 
  373100      144 
  373200      144 
  373300      144 
  373400      144 
  373500      144 
  373600      144 
  373700      144 
  373800      144 
  373900      144 
  374000      144 
  374100      144 
  374200      144 
  374300      144 
  374400      144 
  374500      144 
  374600      144 
  374700      144 
  374800      144 
  374900      144 
  375000      144 
  375100      144 
  375200      144 
  375300      144 
  375400      144 
  375500      144 
  375600      144 
  375700      144 
  375800      144 
  375900      144 
  376000      144 
  376100      144 
  376200      144 
  376300      144 
  376400      144 
  376500      144 
  376600      144 
  376700      144 
  376800      144 
  376900      144 
  377000      144 
  377100      144 
  377200      144 
  377300      144 
  377400      144 
  377500      144 
  377600      144 
  377700      144 
  377800      144 
  377900      144 
  378000      144 
  378100      144 
  378200      144 
  378300      144 
  378400      144 
  378500      144 
  378600      144 
  378700      144 
  378800      144 
  378900      144 
  379000      144 
  379100      144 
  379200      144 
  379300      144 
  379400      144 
  379500      144 
  379600      144 
  379700      144 
  379800      144 
  379900      144 
  380000      144 
  380100      144 
  380200      144 
  380300      144 
  380400      144 
  380500      144 
  380600      144 
  380700      144 
  380800      144 
  380900      144 
  381000      144 
  381100      144 
  381200      144 
  381300      144 
  381400      144 
  381500      144 
  381600      144 
  381700      144 
  381800      144 
  381900      144 
  382000      144 
  382100      144 
  382200      144 
  382300      144 
  382400      144 
  382500      144 
  382600      144 
  382700      144 
  382800      144 
  382900      144 
  383000      144 
  383100      144 
  383200      144 
  383300      144 
  383400      144 
  383500      144 
  383600      144 
  383700      144 
  383800      144 
  383900      144 
  384000      144 
  384100      144 
  384200      144 
  384300      144 
  384400      144 
  384500      144 
  384600      144 
  384700      144 
  384800      144 
  384900      144 
  385000      144 
  385100      144 
  385200      144 
  385300      144 
  385400      144 
  385500      144 
  385600      144 
  385700      144 
  385800      144 
  385900      144 
  386000      144 
  386100      144 
  386200      144 
  386300      144 
  386400      144 
  386500      144 
  386600      144 
  386700      144 
  386800      144 
  386900      144 
  387000      144 
  387100      144 
  387200      144 
  387300      144 
  387400      144 
  387500      144 
  387600      144 
  387700      144 
  387800      144 
  387900      144 
  388000      144 
  388100      144 
  388200      144 
  388300      144 
  388400      144 
  388500      144 
  388600      144 
  388700      144 
  388800      144 
  388900      144 
  389000      144 
  389100      144 
  389200      144 
  389300      144 
  389400      144 
  389500      144 
  389600      144 
  389700      144 
  389800      144 
  389900      144 
  390000      144 
  390100      144 
  390200      144 
  390300      144 
  390400      144 
  390500      144 
  390600      144 
  390700      144 
  390800      144 
  390900      144 
  391000      144 
  391100      144 
  391200      144 
  391300      144 
  391400      144 
  391500      144 
  391600      144 
  391700      144 
  391800      144 
  391900      144 
  392000      144 
  392100      144 
  392200      144 
  392300      144 
  392400      144 
  392500      144 
  392600      144 
  392700      144 
  392800      144 
  392900      144 
  393000      144 
  393100      144 
  393200      144 
  393300      144 
  393400      144 
  393500      144 
  393600      144 
  393700      144 
  393800      144 
  393900      144 
  394000      144 
  394100      144 
  394200      144 
  394300      144 
  394400      144 
  394500      144 
  394600      144 
  394700      144 
  394800      144 
  394900      144 
  395000      144 
  395100      144 
  395200      144 
  395300      144 
  395400      144 
  395500      144 
  395600      144 
  395700      144 
  395800      144 
  395900      144 
  396000      144 
  396100      144 
  396200      144 
  396300      144 
  396400      144 
  396500      144 
  396600      144 
  396700      144 
  396800      144 
  396900      144 
  397000      144 
  397100      144 
  397200      144 
  397300      144 
  397400      144 
  397500      144 
  397600      144 
  397700      144 
  397800      144 
  397900      144 
  398000      144 
  398100      144 
  398200      144 
  398300      144 
  398400      144 
  398500      144 
  398600      144 
  398700      144 
  398800      144 
  398900      144 
  399000      144 
  399100      144 
  399200      144 
  399300      144 
  399400      144 
  399500      144 
  399600      144 
  399700      144 
  399800      144 
  399900      144 
  400000      144 
  400100      144 
  400200      144 
  400300      144 
  400400      144 
  400500      144 
  400600      144 
  400700      144 
  400800      144 
  400900      144 
  401000      144 
  401100      144 
  401200      144 
  401300      144 
  401400      144 
  401500      144 
  401600      144 
  401700      144 
  401800      144 
  401900      144 
  402000      144 
  402100      144 
  402200      144 
  402300      144 
  402400      144 
  402500      144 
  402600      144 
  402700      144 
  402800      144 
  402900      144 
  403000      144 
  403100      144 
  403200      144 
  403300      144 
  403400      144 
  403500      144 
  403600      144 
  403700      144 
  403800      144 
  403900      144 
  404000      144 
  404100      144 
  404200      144 
  404300      144 
  404400      144 
  404500      144 
  404600      144 
  404700      144 
  404800      144 
  404900      144 
  405000      144 
  405100      144 
  405200      144 
  405300      144 
  405400      144 
  405500      144 
  405600      144 
  405700      144 
  405800      144 
  405900      144 
  406000      144 
  406100      144 
  406200      144 
  406300      144 
  406400      144 
  406500      144 
  406600      144 
  406700      144 
  406800      144 
  406900      144 
  407000      144 
  407100      144 
  407200      144 
  407300      144 
  407400      144 
  407500      144 
  407600      144 
  407700      144 
  407800      144 
  407900      144 
  408000      144 
  408100      144 
  408200      144 
  408300      144 
  408400      144 
  408500      144 
  408600      144 
  408700      144 
  408800      144 
  408900      144 
  409000      144 
  409100      144 
  409200      144 
  409300      144 
  409400      144 
  409500      144 
  409600      144 
  409700      144 
  409800      144 
  409900      144 
  410000      144 
  410100      144 
  410200      144 
  410300      144 
  410400      144 
  410500      144 
[...]
  501400      144 
  501500      144 
  501600      144 
  501700      144 
  501800      144 
  501900      144 
  502000      144 
  502100      144 
  502200      144 
  502300      144 
  502400      144 
  502500      144 
  502600      144 
  502700      144 
  502800      144 
  502900      144 
  503000      144 
  503100      144 
  503200      144 
  503300      144 
  503400      144 
  503500      144 
  503600      144 
  503700      144 
  503800      144 
  503900      144 
  504000      144 
  504100      144 
  504200      144 
  504300      144 
  504400      144 
  504500      144 
  504600      144 
  504700      144 
  504800      144 
  504900      144 
  505000      144 
  505100      144 
  505200      144 
  505300      144 
  505400      144 
  505500      144 
  505600      144 
  505700      144 
  505800      144 
  505900      144 
  506000      144 
  506100      144 
  506200      144 
  506300      144 
  506400      144 
  506500      144 
  506600      144 
  506700      144 
  506800      144 
  506900      144 
  507000      144 
  507100      144 
  507200      144 
  507300      144 
  507400      144 
  507500      144 
  507600      144 
  507700      144 
  507800      144 
  507900      144 
  508000      144 
  508100      144 
  508200      144 
  508300      144 
  508400      144 
  508500      144 
  508600      144 
  508700      144 
  508800      144 
  508900      144 
  509000      144 
  509100      144 
  509200      144 
  509300      144 
  509400      144 
  509500      144 
  509600      144 
  509700      144 
  509800      144 
  509900      144 
  510000      144 
  510100      144 
  510200      144 
  510300      144 
  510400      144 
  510500      144 
  510600      144 
  510700      144 
  510800      144 
  510900      144 
  511000      144 
  511100      144 
  511200      144 
  511300      144 
  511400      144 
  511500      144 
  511600      144 
  511700      144 
  511800      144 
  511900      144 
  512000      144 
  512100      144 
  512200      144 
  512300      144 
  512400      144 
  512500      144 
  512600      144 
  512700      144 
  512800      144 
  512900      144 
  513000      144 
  513100      144 
  513200      144 
  513300      144 
  513400      144 
  513500      144 
  513600      144 
  513700      144 
  513800      144 
  513900      144 
  514000      144 
  514100      144 
  514200      144 
  514300      144 
  514400      144 
  514500      144 
  514600      144 
  514700      144 
  514800      144 
  514900      144 
  515000      144 
  515100      144 
  515200      144 
  515300      144 
  515400      144 
  515500      144 
  515600      144 
  515700      144 
  515800      144 
  515900      144 
  516000      144 
  516100      144 
  516200      144 
  516300      144 
  516400      144 
  516500      144 
  516600      144 
  516700      144 
  516800      144 
  516900      144 
  517000      144 
  517100      144 
  517200      144 
  517300      144 
  517400      144 
  517500      144 
  517600      144 
  517700      144 
  517800      144 
  517900      144 
  518000      144 
  518100      144 
  518200      144 
  518300      144 
  518400      144 
  518500      144 
  518600      144 
  518700      144 
  518800      144 
  518900      144 
  519000      144 
  519100      144 
  519200      144 
  519300      144 
  519400      144 
  519500      144 
  519600      144 
  519700      144 
  519800      144 
  519900      144 
  520000      144 
  520100      144 
  520200      144 
  520300      144 
  520400      144 
  520500      144 
  520600      144 
  520700      144 
  520800      144 
  520900      144 
  521000      144 
  521100      144 
  521200      144 
  521300      144 
  521400      144 
  521500      144 
  521600      144 
  521700      144 
  521800      144 
  521900      144 
  522000      144 
  522100      144 
  522200      144 
  522300      144 
  522400      144 
  522500      144 
  522600      144 
  522700      144 
  522800      144 
  522900      144 
  523000      144 
  523100      144 
  523200      144 
  523300      144 
  523400      144 
  523500      144 
  523600      144 
  523700      144 
  523800      144 
  523900      144 
  524000      144 
  524100      144 
  524200      144 
  524300      144 
  524400      144 
  524500      144 
  524600      144 
  524700      144 
  524800      144 
  524900      144 
  525000      144 
  525100      144 
  525200      144 
  525300      144 
  525400      144 
  525500      144 
  525600      144 
  525700      144 
  525800      144 
  525900      144 
  526000      144 
  526100      144 
  526200      144 
  526300      144 
  526400      144 
  526500      144 
  526600      144 
  526700      144 
  526800      144 
  526900      144 
  527000      144 
  527100      144 
  527200      144 
  527300      144 
  527400      144 
  527500      144 
  527600      144 
  527700      144 
  527800      144 
  527900      144 
  528000      144 
  528100      144 
  528200      144 
  528300      144 
  528400      144 
  528500      144 
  528600      144 
  528700      144 
  528800      144 
  528900      144 
  529000      144 
  529100      144 
  529200      144 
  529300      144 
  529400      144 
  529500      144 
  529600      144 
  529700      144 
  529800      144 
  529900      144 
  530000      144 
  530100      144 
  530200      144 
  530300      144 
  530400      144 
  530500      144 
  530600      144 
  530700      144 
  530800      144 
  530900      144 
  531000      144 
  531100      144 
  531200      144 
  531300      144 
  531400      144 
  531500      144 
  531600      144 
  531700      144 
  531800      144 
  531900      144 
  532000      144 
  532100      144 
  532200      144 
  532300      144 
  532400      144 
  532500      144 
  532600      144 
  532700      144 
  532800      144 
  532900      144 
  533000      144 
  533100      144 
  533200      144 
  533300      144 
  533400      144 
  533500      144 
  533600      144 
  533700      144 
  533800      144 
  533900      144 
  534000      144 
  534100      144 
  534200      144 
  534300      144 
  534400      144 
  534500      144 
  534600      144 
  534700      144 
  534800      144 
  534900      144 
  535000      144 
  535100      144 
  535200      144 
  535300      144 
  535400      144 
  535500      144 
  535600      144 
  535700      144 
  535800      144 
  535900      144 
  536000      144 
  536100      144 
  536200      144 
  536300      144 
  536400      144 
  536500      144 
  536600      144 
  536700      144 
  536800      144 
  536900      144 
  537000      144 
  537100      144 
  537200      144 
  537300      144 
  537400      144 
  537500      144 
  537600      144 
  537700      144 
  537800      144 
  537900      144 
  538000      144 
  538100      144 
  538200      144 
  538300      144 
  538400      144 
  538500      144 
  538600      144 
  538700      144 
  538800      144 
  538900      144 
  539000      144 
  539100      144 
  539200      144 
  539300      144 
  539400      144 
  539500      144 
  539600      144 
  539700      144 
  539800      144 
  539900      144 
  540000      144 
  540100      144 
  540200      144 
  540300      144 
  540400      144 
  540500      144 
  540600      144 
  540700      144 
  540800      144 
  540900      144 
  541000      144 
  541100      144 
  541200      144 
  541300      144 
  541400      144 
  541500      144 
  541600      144 
  541700      144 
  541800      144 
  541900      144 
  542000      144 
  542100      144 
  542200      144 
  542300      144 
  542400      144 
  542500      144 
  542600      144 
  542700      144 
  542800      144 
  542900      144 
  543000      144 
  543100      144 
  543200      144 
  543300      144 
  543400      144 
  543500      144 
  543600      144 
  543700      144 
  543800      144 
  543900      144 
  544000      144 
  544100      144 
  544200      144 
  544300      144 
  544400      144 
  544500      144 
  544600      144 
  544700      144 
  544800      144 
  544900      144 
  545000      144 
  545100      144 
  545200      144 
  545300      144 
  545400      144 
  545500      144 
  545600      144 
  545700      144 
  545800      144 
  545900      144 
  546000      144 
  546100      144 
  546200      144 
  546300      144 
  546400      144 
  546500      144 
  546600      144 
  546700      144 
  546800      144 
  546900      144 
  547000      144 
  547100      144 
  547200      144 
  547300      144 
  547400      144 
  547500      144 
  547600      144 
  547700      144 
  547800      144 
  547900      144 
  548000      144 
  548100      144 
  548200      144 
  548300      144 
  548400      144 
  548500      144 
  548600      144 
  548700      144 
  548800      144 
  548900      144 
  549000      144 
  549100      144 
  549200      144 
  549300      144 
  549400      144 
  549500      144 
  549600      144 
  549700      144 
  549800      144 
  549900      144 
  550000      144 
  550100      144 
  550200      144 
  550300      144 
  550400      144 
  550500      144 
  550600      144 
  550700      144 
  550800      144 
  550900      144 
  551000      144 
  551100      144 
  551200      144 
  551300      144 
  551400      144 
  551500      144 
  551600      144 
  551700      144 
  551800      144 
  551900      144 
  552000      144 
  552100      144 
  552200      144 
  552300      144 
  552400      144 
  552500      144 
  552600      144 
  552700      144 
  552800      144 
  552900      144 
  553000      144 
  553100      144 
  553200      144 
  553300      144 
  553400      144 
  553500      144 
  553600      144 
  553700      144 
  553800      144 
  553900      144 
  554000      144 
  554100      144 
  554200      144 
  554300      144 
  554400      144 
  554500      144 
  554600      144 
  554700      144 
  554800      144 
  554900      144 
  555000      144 
  555100      144 
  555200      144 
  555300      144 
  555400      144 
  555500      144 
  555600      144 
  555700      144 
  555800      144 
  555900      144 
  556000      144 
  556100      144 
  556200      144 
  556300      144 
  556400      144 
  556500      144 
  556600      144 
  556700      144 
  556800      144 
  556900      144 
  557000      144 
  557100      144 
  557200      144 
  557300      144 
  557400      144 
  557500      144 
  557600      144 
  557700      144 
  557800      144 
  557900      144 
  558000      144 
  558100      144 
  558200      144 
  558300      144 
  558400      144 
  558500      144 
  558600      144 
  558700      144 
  558800      144 
  558900      144 
  559000      144 
  559100      144 
  559200      144 
  559300      144 
  559400      144 
  559500      144 
  559600      144 
  559700      144 
  559800      144 
  559900      144 
  560000      144 
  560100      144 
  560200      144 
  560300      144 
  560400      144 
  560500      144 
  560600      144 
  560700      144 
  560800      144 
  560900      144 
  561000      144 
  561100      144 
  561200      144 
  561300      144 
  561400      144 
  561500      144 
  561600      144 
  561700      144 
  561800      144 
  561900      144 
  562000      144 
  562100      144 
  562200      144 
  562300      144 
  562400      144 
  562500      144 
  562600      144 
  562700      144 
  562800      144 
  562900      144 
  563000      144 
  563100      144 
  563200      144 
  563300      144 
  563400      144 
  563500      144 
  563600      144 
  563700      144 
  563800      144 
  563900      144 
  564000      144 
  564100      144 
  564200      144 
  564300      144 
  564400      144 
  564500      144 
  564600      144 
  564700      144 
  564800      144 
  564900      144 
  565000      144 
  565100      144 
  565200      144 
  565300      144 
  565400      144 
  565500      144 
  565600      144 
  565700      144 
  565800      144 
  565900      144 
  566000      144 
  566100      144 
  566200      144 
  566300      144 
  566400      144 
  566500      144 
  566600      144 
  566700      144 
  566800      144 
  566900      144 
  567000      144 
  567100      144 
  567200      144 
  567300      144 
  567400      144 
  567500      144 
  567600      144 
  567700      144 
  567800      144 
  567900      144 
  568000      144 
  568100      144 
  568200      144 
  568300      144 
  568400      144 
  568500      144 
  568600      144 
  568700      144 
  568800      144 
  568900      144 
  569000      144 
  569100      144 
  569200      144 
  569300      144 
  569400      144 
  569500      144 
  569600      144 
  569700      144 
  569800      144 
  569900      144 
  570000      144 
  570100      144 
  570200      144 
  570300      144 
  570400      144 
  570500      144 
  570600      144 
  570700      144 
  570800      144 
  570900      144 
  571000      144 
  571100      144 
  571200      144 
  571300      144 
  571400      144 
  571500      144 
  571600      144 
  571700      144 
  571800      144 
  571900      144 
  572000      144 
  572100      144 
  572200      144 
  572300      144 
  572400      144 
  572500      144 
  572600      144 
  572700      144 
  572800      144 
  572900      144 
  573000      144 
  573100      144 
  573200      144 
  573300      144 
  573400      144 
  573500      144 
  573600      144 
  573700      144 
  573800      144 
  573900      144 
  574000      144 
  574100      144 
  574200      144 
  574300      144 
  574400      144 
  574500      144 
  574600      144 
  574700      144 
  574800      144 
  574900      144 
  575000      144 
  575100      144 
  575200      144 
  575300      144 
  575400      144 
  575500      144 
  575600      144 
  575700      144 
  575800      144 
  575900      144 
  576000      144 
  576100      144 
  576200      144 
  576300      144 
  576400      144 
  576500      144 
  576600      144 
  576700      144 
  576800      144 
  576900      144 
  577000      144 
  577100      144 
  577200      144 
  577300      144 
  577400      144 
  577500      144 
  577600      144 
  577700      144 
  577800      144 
  577900      144 
  578000      144 
  578100      144 
  578200      144 
  578300      144 
  578400      144 
  578500      144 
  578600      144 
  578700      144 
  578800      144 
  578900      144 
  579000      144 
  579100      144 
  579200      144 
  579300      144 
  579400      144 
  579500      144 
  579600      144 
  579700      144 
  579800      144 
  579900      144 
  580000      144 
  580100      144 
  580200      144 
  580300      144 
  580400      144 
  580500      144 
  580600      144 
  580700      144 
  580800      144 
  580900      144 
  581000      144 
  581100      144 
  581200      144 
  581300      144 
  581400      144 
  581500      144 
  581600      144 
  581700      144 
  581800      144 
  581900      144 
  582000      144 
  582100      144 
  582200      144 
  582300      144 
  582400      144 
  582500      144 
  582600      144 
  582700      144 
  582800      144 
  582900      144 
  583000      144 
  583100      144 
  583200      144 
  583300      144 
  583400      144 
  583500      144 
  583600      144 
  583700      144 
  583800      144 
  583900      144 
  584000      144 
  584100      144 
  584200      144 
  584300      144 
  584400      144 
  584500      144 
  584600      144 
  584700      144 
  584800      144 
  584900      144 
  585000      144 
  585100      144 
  585200      144 
  585300      144 
  585400      144 
  585500      144 
  585600      144 
  585700      144 
  585800      144 
  585900      144 
  586000      144 
  586100      144 
  586200      144 
  586300      144 
  586400      144 
  586500      144 
  586600      144 
  586700      144 
  586800      144 
  586900      144 
  587000      144 
  587100      144 
  587200      144 
  587300      144 
  587400      144 
  587500      144 
  587600      144 
  587700      144 
  587800      144 
  587900      144 
  588000      144 
  588100      144 
  588200      144 
  588300      144 
  588400      144 
  588500      144 
  588600      144 
  588700      144 
  588800      144 
  588900      144 
  589000      144 
  589100      144 
  589200      144 
  589300      144 
  589400      144 
  589500      144 
  589600      144 
  589700      144 
  589800      144 
  589900      144 
  590000      144 
  590100      144 
  590200      144 
  590300      144 
  590400      144 
  590500      144 
  590600      144 
  590700      144 
  590800      144 
  590900      144 
  591000      144 
  591100      144 
  591200      144 
  591300      144 
  591400      144 
  591500      144 
  591600      144 
  591700      144 
  591800      144 
  591900      144 
  592000      144 
  592100      144 
  592200      144 
  592300      144 
  592400      144 
  592500      144 
  592600      144 
  592700      144 
  592800      144 
  592900      144 
  593000      144 
  593100      144 
  593200      144 
  593300      144 
  593400      144 
  593500      144 
  593600      144 
  593700      144 
  593800      144 
  593900      144 
  594000      144 
  594100      144 
  594200      144 
  594300      144 
  594400      144 
  594500      144 
  594600      144 
  594700      144 
  594800      144 
  594900      144 
  595000      144 
  595100      144 
  595200      144 
  595300      144 
  595400      144 
  595500      144 
  595600      144 
  595700      144 
  595800      144 
  595900      144 
  596000      144 
  596100      144 
  596200      144 
  596300      144 
  596400      144 
  596500      144 
  596600      144 
  596700      144 
  596800      144 
  596900      144 
  597000      144 
  597100      144 
  597200      144 
  597300      144 
  597400      144 
  597500      144 
  597600      144 
  597700      144 
  597800      144 
  597900      144 
  598000      144 
  598100      144 
  598200      144 
  598300      144 
  598400      144 
  598500      144 
  598600      144 
  598700      144 
  598800      144 
  598900      144 
  599000      144 
  599100      144 
  599200      144 
  599300      144 
  599400      144 
  599500      144 
  599600      144 
  599700      144 
  599800      144 
  599900      144 
  600000      144 
Loop time of 118.625 on 1 procs for 600000 steps with 144 atoms

Performance: 43700558178562.289 ns/day, 0.000 hours/ns, 5057.935 timesteps/s
100.0% CPU use with 1 MPI tasks x no OpenMP threads

MPI task timing breakdown:
Section |  min time  |  avg time  |  max time  |%varavg| %total
---------------------------------------------------------------
Pair    | 99.769     | 99.769     | 99.769     |   0.0 | 84.10
Bond    | 0.02126    | 0.02126    | 0.02126    |   0.0 |  0.02
Neigh   | 0.0021644  | 0.0021644  | 0.0021644  |   0.0 |  0.00
Comm    | 2.0788     | 2.0788     | 2.0788     |   0.0 |  1.75
Output  | 0.25433    | 0.25433    | 0.25433    |   0.0 |  0.21
Modify  | 16.135     | 16.135     | 16.135     |   0.0 | 13.60
Other   |            | 0.3652     |            |       |  0.31

Nlocal:    144 ave 144 max 144 min
Histogram: 1 0 0 0 0 0 0 0 0 0
Nghost:    364 ave 364 max 364 min
Histogram: 1 0 0 0 0 0 0 0 0 0
Neighs:    6396 ave 6396 max 6396 min
Histogram: 1 0 0 0 0 0 0 0 0 0
FullNghs:  12792 ave 12792 max 12792 min
Histogram: 1 0 0 0 0 0 0 0 0 0

Total # of neighbors = 12792
Ave neighs/atom = 88.8333
Ave special neighs/atom = 0
Neighbor list builds = 9
Dangerous builds = 0
                    
Total wall time: 0:01:58
