This is the initial atom setup of lammps_files/test_serial/test.lmpdata
144 atoms
1 atom types
0 bonds
0 bond types
-27.0 27.0 xlo xhi
-27.0 27.0 ylo yhi
-2.0 2.0 zlo zhi
        
Atoms

1	 1	 -24.917532544464805	 -24.917532544464805	 0.0	 2.8	 0.005147941820269123	 0.0	 0	 0	 0	 0.4	 1 #atom id|type|x0|y0|z0|d|rho|m|mx|my|mz|chi|trap_id
2	 1	 -20.38707208183484	 -24.917532544464805	 0.0	 2.8	 0.005147941820269123	 0.0	 0	 0	 0	 0.4	 2 #atom id|type|x0|y0|z0|d|rho|m|mx|my|mz|chi|trap_id
3	 1	 -15.856611619204877	 -24.917532544464805	 0.0	 2.8	 0.005147941820269123	 0.0	 0	 0	 0	 0.4	 3 #atom id|type|x0|y0|z0|d|rho|m|mx|my|mz|chi|trap_id
4	 1	 -11.326151156574912	 -24.917532544464805	 0.0	 2.8	 0.005147941820269123	 0.0	 0	 0	 0	 0.4	 4 #atom id|type|x0|y0|z0|d|rho|m|mx|my|mz|chi|trap_id
5	 1	 -6.795690693944948	 -24.917532544464805	 0.0	 2.8	 0.005147941820269123	 0.0	 0	 0	 0	 0.4	 5 #atom id|type|x0|y0|z0|d|rho|m|mx|my|mz|chi|trap_id
6	 1	 -2.265230231314984	 -24.917532544464805	 0.0	 2.8	 0.005147941820269123	 0.0	 0	 0	 0	 0.4	 6 #atom id|type|x0|y0|z0|d|rho|m|mx|my|mz|chi|trap_id
7	 1	 2.2652302313149804	 -24.917532544464805	 0.0	 2.8	 0.005147941820269123	 0.0	 0	 0	 0	 0.4	 7 #atom id|type|x0|y0|z0|d|rho|m|mx|my|mz|chi|trap_id
8	 1	 6.795690693944945	 -24.917532544464805	 0.0	 2.8	 0.005147941820269123	 0.0	 0	 0	 0	 0.4	 8 #atom id|type|x0|y0|z0|d|rho|m|mx|my|mz|chi|trap_id
9	 1	 11.326151156574909	 -24.917532544464805	 0.0	 2.8	 0.005147941820269123	 0.0	 0	 0	 0	 0.4	 9 #atom id|type|x0|y0|z0|d|rho|m|mx|my|mz|chi|trap_id
10	 1	 15.85661161920487	 -24.917532544464805	 0.0	 2.8	 0.005147941820269123	 0.0	 0	 0	 0	 0.4	 10 #atom id|type|x0|y0|z0|d|rho|m|mx|my|mz|chi|trap_id
11	 1	 20.387072081834837	 -24.917532544464805	 0.0	 2.8	 0.005147941820269123	 0.0	 0	 0	 0	 0.4	 11 #atom id|type|x0|y0|z0|d|rho|m|mx|my|mz|chi|trap_id
12	 1	 24.917532544464805	 -24.917532544464805	 0.0	 2.8	 0.005147941820269123	 0.0	 0	 0	 0	 0.4	 12 #atom id|type|x0|y0|z0|d|rho|m|mx|my|mz|chi|trap_id
13	 1	 -24.917532544464805	 -20.38707208183484	 0.0	 2.8	 0.005147941820269123	 0.0	 0	 0	 0	 0.4	 13 #atom id|type|x0|y0|z0|d|rho|m|mx|my|mz|chi|trap_id
14	 1	 -20.38707208183484	 -20.38707208183484	 0.0	 2.8	 0.005147941820269123	 0.0	 0	 0	 0	 0.4	 14 #atom id|type|x0|y0|z0|d|rho|m|mx|my|mz|chi|trap_id
15	 1	 -15.856611619204877	 -20.38707208183484	 0.0	 2.8	 0.005147941820269123	 0.0	 0	 0	 0	 0.4	 15 #atom id|type|x0|y0|z0|d|rho|m|mx|my|mz|chi|trap_id
16	 1	 -11.326151156574912	 -20.38707208183484	 0.0	 2.8	 0.005147941820269123	 0.0	 0	 0	 0	 0.4	 16 #atom id|type|x0|y0|z0|d|rho|m|mx|my|mz|chi|trap_id
17	 1	 -6.795690693944948	 -20.38707208183484	 0.0	 2.8	 0.005147941820269123	 0.0	 0	 0	 0	 0.4	 17 #atom id|type|x0|y0|z0|d|rho|m|mx|my|mz|chi|trap_id
18	 1	 -2.265230231314984	 -20.38707208183484	 0.0	 2.8	 0.005147941820269123	 0.0	 0	 0	 0	 0.4	 18 #atom id|type|x0|y0|z0|d|rho|m|mx|my|mz|chi|trap_id
19	 1	 2.2652302313149804	 -20.38707208183484	 0.0	 2.8	 0.005147941820269123	 0.0	 0	 0	 0	 0.4	 19 #atom id|type|x0|y0|z0|d|rho|m|mx|my|mz|chi|trap_id
20	 1	 6.795690693944945	 -20.38707208183484	 0.0	 2.8	 0.005147941820269123	 0.0	 0	 0	 0	 0.4	 20 #atom id|type|x0|y0|z0|d|rho|m|mx|my|mz|chi|trap_id
21	 1	 11.326151156574909	 -20.38707208183484	 0.0	 2.8	 0.005147941820269123	 0.0	 0	 0	 0	 0.4	 21 #atom id|type|x0|y0|z0|d|rho|m|mx|my|mz|chi|trap_id
22	 1	 15.85661161920487	 -20.38707208183484	 0.0	 2.8	 0.005147941820269123	 0.0	 0	 0	 0	 0.4	 22 #atom id|type|x0|y0|z0|d|rho|m|mx|my|mz|chi|trap_id
23	 1	 20.387072081834837	 -20.38707208183484	 0.0	 2.8	 0.005147941820269123	 0.0	 0	 0	 0	 0.4	 23 #atom id|type|x0|y0|z0|d|rho|m|mx|my|mz|chi|trap_id
24	 1	 24.917532544464805	 -20.38707208183484	 0.0	 2.8	 0.005147941820269123	 0.0	 0	 0	 0	 0.4	 24 #atom id|type|x0|y0|z0|d|rho|m|mx|my|mz|chi|trap_id
25	 1	 -24.917532544464805	 -15.856611619204877	 0.0	 2.8	 0.005147941820269123	 0.0	 0	 0	 0	 0.4	 25 #atom id|type|x0|y0|z0|d|rho|m|mx|my|mz|chi|trap_id
26	 1	 -20.38707208183484	 -15.856611619204877	 0.0	 2.8	 0.005147941820269123	 0.0	 0	 0	 0	 0.4	 26 #atom id|type|x0|y0|z0|d|rho|m|mx|my|mz|chi|trap_id
27	 1	 -15.856611619204877	 -15.856611619204877	 0.0	 2.8	 0.005147941820269123	 0.0	 0	 0	 0	 0.4	 27 #atom id|type|x0|y0|z0|d|rho|m|mx|my|mz|chi|trap_id
28	 1	 -11.326151156574912	 -15.856611619204877	 0.0	 2.8	 0.005147941820269123	 0.0	 0	 0	 0	 0.4	 28 #atom id|type|x0|y0|z0|d|rho|m|mx|my|mz|chi|trap_id
29	 1	 -6.795690693944948	 -15.856611619204877	 0.0	 2.8	 0.005147941820269123	 0.0	 0	 0	 0	 0.4	 29 #atom id|type|x0|y0|z0|d|rho|m|mx|my|mz|chi|trap_id
30	 1	 -2.265230231314984	 -15.856611619204877	 0.0	 2.8	 0.005147941820269123	 0.0	 0	 0	 0	 0.4	 30 #atom id|type|x0|y0|z0|d|rho|m|mx|my|mz|chi|trap_id
31	 1	 2.2652302313149804	 -15.856611619204877	 0.0	 2.8	 0.005147941820269123	 0.0	 0	 0	 0	 0.4	 31 #atom id|type|x0|y0|z0|d|rho|m|mx|my|mz|chi|trap_id
32	 1	 6.795690693944945	 -15.856611619204877	 0.0	 2.8	 0.005147941820269123	 0.0	 0	 0	 0	 0.4	 32 #atom id|type|x0|y0|z0|d|rho|m|mx|my|mz|chi|trap_id
33	 1	 11.326151156574909	 -15.856611619204877	 0.0	 2.8	 0.005147941820269123	 0.0	 0	 0	 0	 0.4	 33 #atom id|type|x0|y0|z0|d|rho|m|mx|my|mz|chi|trap_id
34	 1	 15.85661161920487	 -15.856611619204877	 0.0	 2.8	 0.005147941820269123	 0.0	 0	 0	 0	 0.4	 34 #atom id|type|x0|y0|z0|d|rho|m|mx|my|mz|chi|trap_id
35	 1	 20.387072081834837	 -15.856611619204877	 0.0	 2.8	 0.005147941820269123	 0.0	 0	 0	 0	 0.4	 35 #atom id|type|x0|y0|z0|d|rho|m|mx|my|mz|chi|trap_id
36	 1	 24.917532544464805	 -15.856611619204877	 0.0	 2.8	 0.005147941820269123	 0.0	 0	 0	 0	 0.4	 36 #atom id|type|x0|y0|z0|d|rho|m|mx|my|mz|chi|trap_id
37	 1	 -24.917532544464805	 -11.326151156574912	 0.0	 2.8	 0.005147941820269123	 0.0	 0	 0	 0	 0.4	 37 #atom id|type|x0|y0|z0|d|rho|m|mx|my|mz|chi|trap_id
38	 1	 -20.38707208183484	 -11.326151156574912	 0.0	 2.8	 0.005147941820269123	 0.0	 0	 0	 0	 0.4	 38 #atom id|type|x0|y0|z0|d|rho|m|mx|my|mz|chi|trap_id
39	 1	 -15.856611619204877	 -11.326151156574912	 0.0	 2.8	 0.005147941820269123	 0.0	 0	 0	 0	 0.4	 39 #atom id|type|x0|y0|z0|d|rho|m|mx|my|mz|chi|trap_id
40	 1	 -11.326151156574912	 -11.326151156574912	 0.0	 2.8	 0.005147941820269123	 0.0	 0	 0	 0	 0.4	 40 #atom id|type|x0|y0|z0|d|rho|m|mx|my|mz|chi|trap_id
41	 1	 -6.795690693944948	 -11.326151156574912	 0.0	 2.8	 0.005147941820269123	 0.0	 0	 0	 0	 0.4	 41 #atom id|type|x0|y0|z0|d|rho|m|mx|my|mz|chi|trap_id
42	 1	 -2.265230231314984	 -11.326151156574912	 0.0	 2.8	 0.005147941820269123	 0.0	 0	 0	 0	 0.4	 42 #atom id|type|x0|y0|z0|d|rho|m|mx|my|mz|chi|trap_id
43	 1	 2.2652302313149804	 -11.326151156574912	 0.0	 2.8	 0.005147941820269123	 0.0	 0	 0	 0	 0.4	 43 #atom id|type|x0|y0|z0|d|rho|m|mx|my|mz|chi|trap_id
44	 1	 6.795690693944945	 -11.326151156574912	 0.0	 2.8	 0.005147941820269123	 0.0	 0	 0	 0	 0.4	 44 #atom id|type|x0|y0|z0|d|rho|m|mx|my|mz|chi|trap_id
45	 1	 11.326151156574909	 -11.326151156574912	 0.0	 2.8	 0.005147941820269123	 0.0	 0	 0	 0	 0.4	 45 #atom id|type|x0|y0|z0|d|rho|m|mx|my|mz|chi|trap_id
46	 1	 15.85661161920487	 -11.326151156574912	 0.0	 2.8	 0.005147941820269123	 0.0	 0	 0	 0	 0.4	 46 #atom id|type|x0|y0|z0|d|rho|m|mx|my|mz|chi|trap_id
47	 1	 20.387072081834837	 -11.326151156574912	 0.0	 2.8	 0.005147941820269123	 0.0	 0	 0	 0	 0.4	 47 #atom id|type|x0|y0|z0|d|rho|m|mx|my|mz|chi|trap_id
48	 1	 24.917532544464805	 -11.326151156574912	 0.0	 2.8	 0.005147941820269123	 0.0	 0	 0	 0	 0.4	 48 #atom id|type|x0|y0|z0|d|rho|m|mx|my|mz|chi|trap_id
49	 1	 -24.917532544464805	 -6.795690693944948	 0.0	 2.8	 0.005147941820269123	 0.0	 0	 0	 0	 0.4	 49 #atom id|type|x0|y0|z0|d|rho|m|mx|my|mz|chi|trap_id
50	 1	 -20.38707208183484	 -6.795690693944948	 0.0	 2.8	 0.005147941820269123	 0.0	 0	 0	 0	 0.4	 50 #atom id|type|x0|y0|z0|d|rho|m|mx|my|mz|chi|trap_id
51	 1	 -15.856611619204877	 -6.795690693944948	 0.0	 2.8	 0.005147941820269123	 0.0	 0	 0	 0	 0.4	 51 #atom id|type|x0|y0|z0|d|rho|m|mx|my|mz|chi|trap_id
52	 1	 -11.326151156574912	 -6.795690693944948	 0.0	 2.8	 0.005147941820269123	 0.0	 0	 0	 0	 0.4	 52 #atom id|type|x0|y0|z0|d|rho|m|mx|my|mz|chi|trap_id
53	 1	 -6.795690693944948	 -6.795690693944948	 0.0	 2.8	 0.005147941820269123	 0.0	 0	 0	 0	 0.4	 53 #atom id|type|x0|y0|z0|d|rho|m|mx|my|mz|chi|trap_id
54	 1	 -2.265230231314984	 -6.795690693944948	 0.0	 2.8	 0.005147941820269123	 0.0	 0	 0	 0	 0.4	 54 #atom id|type|x0|y0|z0|d|rho|m|mx|my|mz|chi|trap_id
55	 1	 2.2652302313149804	 -6.795690693944948	 0.0	 2.8	 0.005147941820269123	 0.0	 0	 0	 0	 0.4	 55 #atom id|type|x0|y0|z0|d|rho|m|mx|my|mz|chi|trap_id
56	 1	 6.795690693944945	 -6.795690693944948	 0.0	 2.8	 0.005147941820269123	 0.0	 0	 0	 0	 0.4	 56 #atom id|type|x0|y0|z0|d|rho|m|mx|my|mz|chi|trap_id
57	 1	 11.326151156574909	 -6.795690693944948	 0.0	 2.8	 0.005147941820269123	 0.0	 0	 0	 0	 0.4	 57 #atom id|type|x0|y0|z0|d|rho|m|mx|my|mz|chi|trap_id
58	 1	 15.85661161920487	 -6.795690693944948	 0.0	 2.8	 0.005147941820269123	 0.0	 0	 0	 0	 0.4	 58 #atom id|type|x0|y0|z0|d|rho|m|mx|my|mz|chi|trap_id
59	 1	 20.387072081834837	 -6.795690693944948	 0.0	 2.8	 0.005147941820269123	 0.0	 0	 0	 0	 0.4	 59 #atom id|type|x0|y0|z0|d|rho|m|mx|my|mz|chi|trap_id
60	 1	 24.917532544464805	 -6.795690693944948	 0.0	 2.8	 0.005147941820269123	 0.0	 0	 0	 0	 0.4	 60 #atom id|type|x0|y0|z0|d|rho|m|mx|my|mz|chi|trap_id
61	 1	 -24.917532544464805	 -2.265230231314984	 0.0	 2.8	 0.005147941820269123	 0.0	 0	 0	 0	 0.4	 61 #atom id|type|x0|y0|z0|d|rho|m|mx|my|mz|chi|trap_id
62	 1	 -20.38707208183484	 -2.265230231314984	 0.0	 2.8	 0.005147941820269123	 0.0	 0	 0	 0	 0.4	 62 #atom id|type|x0|y0|z0|d|rho|m|mx|my|mz|chi|trap_id
63	 1	 -15.856611619204877	 -2.265230231314984	 0.0	 2.8	 0.005147941820269123	 0.0	 0	 0	 0	 0.4	 63 #atom id|type|x0|y0|z0|d|rho|m|mx|my|mz|chi|trap_id
64	 1	 -11.326151156574912	 -2.265230231314984	 0.0	 2.8	 0.005147941820269123	 0.0	 0	 0	 0	 0.4	 64 #atom id|type|x0|y0|z0|d|rho|m|mx|my|mz|chi|trap_id
65	 1	 -6.795690693944948	 -2.265230231314984	 0.0	 2.8	 0.005147941820269123	 0.0	 0	 0	 0	 0.4	 65 #atom id|type|x0|y0|z0|d|rho|m|mx|my|mz|chi|trap_id
66	 1	 -2.265230231314984	 -2.265230231314984	 0.0	 2.8	 0.005147941820269123	 0.0	 0	 0	 0	 0.4	 66 #atom id|type|x0|y0|z0|d|rho|m|mx|my|mz|chi|trap_id
67	 1	 2.2652302313149804	 -2.265230231314984	 0.0	 2.8	 0.005147941820269123	 0.0	 0	 0	 0	 0.4	 67 #atom id|type|x0|y0|z0|d|rho|m|mx|my|mz|chi|trap_id
68	 1	 6.795690693944945	 -2.265230231314984	 0.0	 2.8	 0.005147941820269123	 0.0	 0	 0	 0	 0.4	 68 #atom id|type|x0|y0|z0|d|rho|m|mx|my|mz|chi|trap_id
69	 1	 11.326151156574909	 -2.265230231314984	 0.0	 2.8	 0.005147941820269123	 0.0	 0	 0	 0	 0.4	 69 #atom id|type|x0|y0|z0|d|rho|m|mx|my|mz|chi|trap_id
70	 1	 15.85661161920487	 -2.265230231314984	 0.0	 2.8	 0.005147941820269123	 0.0	 0	 0	 0	 0.4	 70 #atom id|type|x0|y0|z0|d|rho|m|mx|my|mz|chi|trap_id
71	 1	 20.387072081834837	 -2.265230231314984	 0.0	 2.8	 0.005147941820269123	 0.0	 0	 0	 0	 0.4	 71 #atom id|type|x0|y0|z0|d|rho|m|mx|my|mz|chi|trap_id
72	 1	 24.917532544464805	 -2.265230231314984	 0.0	 2.8	 0.005147941820269123	 0.0	 0	 0	 0	 0.4	 72 #atom id|type|x0|y0|z0|d|rho|m|mx|my|mz|chi|trap_id
73	 1	 -24.917532544464805	 2.2652302313149804	 0.0	 2.8	 0.005147941820269123	 0.0	 0	 0	 0	 0.4	 73 #atom id|type|x0|y0|z0|d|rho|m|mx|my|mz|chi|trap_id
74	 1	 -20.38707208183484	 2.2652302313149804	 0.0	 2.8	 0.005147941820269123	 0.0	 0	 0	 0	 0.4	 74 #atom id|type|x0|y0|z0|d|rho|m|mx|my|mz|chi|trap_id
75	 1	 -15.856611619204877	 2.2652302313149804	 0.0	 2.8	 0.005147941820269123	 0.0	 0	 0	 0	 0.4	 75 #atom id|type|x0|y0|z0|d|rho|m|mx|my|mz|chi|trap_id
76	 1	 -11.326151156574912	 2.2652302313149804	 0.0	 2.8	 0.005147941820269123	 0.0	 0	 0	 0	 0.4	 76 #atom id|type|x0|y0|z0|d|rho|m|mx|my|mz|chi|trap_id
77	 1	 -6.795690693944948	 2.2652302313149804	 0.0	 2.8	 0.005147941820269123	 0.0	 0	 0	 0	 0.4	 77 #atom id|type|x0|y0|z0|d|rho|m|mx|my|mz|chi|trap_id
78	 1	 -2.265230231314984	 2.2652302313149804	 0.0	 2.8	 0.005147941820269123	 0.0	 0	 0	 0	 0.4	 78 #atom id|type|x0|y0|z0|d|rho|m|mx|my|mz|chi|trap_id
79	 1	 2.2652302313149804	 2.2652302313149804	 0.0	 2.8	 0.005147941820269123	 0.0	 0	 0	 0	 0.4	 79 #atom id|type|x0|y0|z0|d|rho|m|mx|my|mz|chi|trap_id
80	 1	 6.795690693944945	 2.2652302313149804	 0.0	 2.8	 0.005147941820269123	 0.0	 0	 0	 0	 0.4	 80 #atom id|type|x0|y0|z0|d|rho|m|mx|my|mz|chi|trap_id
81	 1	 11.326151156574909	 2.2652302313149804	 0.0	 2.8	 0.005147941820269123	 0.0	 0	 0	 0	 0.4	 81 #atom id|type|x0|y0|z0|d|rho|m|mx|my|mz|chi|trap_id
82	 1	 15.85661161920487	 2.2652302313149804	 0.0	 2.8	 0.005147941820269123	 0.0	 0	 0	 0	 0.4	 82 #atom id|type|x0|y0|z0|d|rho|m|mx|my|mz|chi|trap_id
83	 1	 20.387072081834837	 2.2652302313149804	 0.0	 2.8	 0.005147941820269123	 0.0	 0	 0	 0	 0.4	 83 #atom id|type|x0|y0|z0|d|rho|m|mx|my|mz|chi|trap_id
84	 1	 24.917532544464805	 2.2652302313149804	 0.0	 2.8	 0.005147941820269123	 0.0	 0	 0	 0	 0.4	 84 #atom id|type|x0|y0|z0|d|rho|m|mx|my|mz|chi|trap_id
85	 1	 -24.917532544464805	 6.795690693944945	 0.0	 2.8	 0.005147941820269123	 0.0	 0	 0	 0	 0.4	 85 #atom id|type|x0|y0|z0|d|rho|m|mx|my|mz|chi|trap_id
86	 1	 -20.38707208183484	 6.795690693944945	 0.0	 2.8	 0.005147941820269123	 0.0	 0	 0	 0	 0.4	 86 #atom id|type|x0|y0|z0|d|rho|m|mx|my|mz|chi|trap_id
87	 1	 -15.856611619204877	 6.795690693944945	 0.0	 2.8	 0.005147941820269123	 0.0	 0	 0	 0	 0.4	 87 #atom id|type|x0|y0|z0|d|rho|m|mx|my|mz|chi|trap_id
88	 1	 -11.326151156574912	 6.795690693944945	 0.0	 2.8	 0.005147941820269123	 0.0	 0	 0	 0	 0.4	 88 #atom id|type|x0|y0|z0|d|rho|m|mx|my|mz|chi|trap_id
89	 1	 -6.795690693944948	 6.795690693944945	 0.0	 2.8	 0.005147941820269123	 0.0	 0	 0	 0	 0.4	 89 #atom id|type|x0|y0|z0|d|rho|m|mx|my|mz|chi|trap_id
90	 1	 -2.265230231314984	 6.795690693944945	 0.0	 2.8	 0.005147941820269123	 0.0	 0	 0	 0	 0.4	 90 #atom id|type|x0|y0|z0|d|rho|m|mx|my|mz|chi|trap_id
91	 1	 2.2652302313149804	 6.795690693944945	 0.0	 2.8	 0.005147941820269123	 0.0	 0	 0	 0	 0.4	 91 #atom id|type|x0|y0|z0|d|rho|m|mx|my|mz|chi|trap_id
92	 1	 6.795690693944945	 6.795690693944945	 0.0	 2.8	 0.005147941820269123	 0.0	 0	 0	 0	 0.4	 92 #atom id|type|x0|y0|z0|d|rho|m|mx|my|mz|chi|trap_id
93	 1	 11.326151156574909	 6.795690693944945	 0.0	 2.8	 0.005147941820269123	 0.0	 0	 0	 0	 0.4	 93 #atom id|type|x0|y0|z0|d|rho|m|mx|my|mz|chi|trap_id
94	 1	 15.85661161920487	 6.795690693944945	 0.0	 2.8	 0.005147941820269123	 0.0	 0	 0	 0	 0.4	 94 #atom id|type|x0|y0|z0|d|rho|m|mx|my|mz|chi|trap_id
95	 1	 20.387072081834837	 6.795690693944945	 0.0	 2.8	 0.005147941820269123	 0.0	 0	 0	 0	 0.4	 95 #atom id|type|x0|y0|z0|d|rho|m|mx|my|mz|chi|trap_id
96	 1	 24.917532544464805	 6.795690693944945	 0.0	 2.8	 0.005147941820269123	 0.0	 0	 0	 0	 0.4	 96 #atom id|type|x0|y0|z0|d|rho|m|mx|my|mz|chi|trap_id
97	 1	 -24.917532544464805	 11.326151156574909	 0.0	 2.8	 0.005147941820269123	 0.0	 0	 0	 0	 0.4	 97 #atom id|type|x0|y0|z0|d|rho|m|mx|my|mz|chi|trap_id
98	 1	 -20.38707208183484	 11.326151156574909	 0.0	 2.8	 0.005147941820269123	 0.0	 0	 0	 0	 0.4	 98 #atom id|type|x0|y0|z0|d|rho|m|mx|my|mz|chi|trap_id
99	 1	 -15.856611619204877	 11.326151156574909	 0.0	 2.8	 0.005147941820269123	 0.0	 0	 0	 0	 0.4	 99 #atom id|type|x0|y0|z0|d|rho|m|mx|my|mz|chi|trap_id
100	 1	 -11.326151156574912	 11.326151156574909	 0.0	 2.8	 0.005147941820269123	 0.0	 0	 0	 0	 0.4	 100 #atom id|type|x0|y0|z0|d|rho|m|mx|my|mz|chi|trap_id
101	 1	 -6.795690693944948	 11.326151156574909	 0.0	 2.8	 0.005147941820269123	 0.0	 0	 0	 0	 0.4	 101 #atom id|type|x0|y0|z0|d|rho|m|mx|my|mz|chi|trap_id
102	 1	 -2.265230231314984	 11.326151156574909	 0.0	 2.8	 0.005147941820269123	 0.0	 0	 0	 0	 0.4	 102 #atom id|type|x0|y0|z0|d|rho|m|mx|my|mz|chi|trap_id
103	 1	 2.2652302313149804	 11.326151156574909	 0.0	 2.8	 0.005147941820269123	 0.0	 0	 0	 0	 0.4	 103 #atom id|type|x0|y0|z0|d|rho|m|mx|my|mz|chi|trap_id
104	 1	 6.795690693944945	 11.326151156574909	 0.0	 2.8	 0.005147941820269123	 0.0	 0	 0	 0	 0.4	 104 #atom id|type|x0|y0|z0|d|rho|m|mx|my|mz|chi|trap_id
105	 1	 11.326151156574909	 11.326151156574909	 0.0	 2.8	 0.005147941820269123	 0.0	 0	 0	 0	 0.4	 105 #atom id|type|x0|y0|z0|d|rho|m|mx|my|mz|chi|trap_id
106	 1	 15.85661161920487	 11.326151156574909	 0.0	 2.8	 0.005147941820269123	 0.0	 0	 0	 0	 0.4	 106 #atom id|type|x0|y0|z0|d|rho|m|mx|my|mz|chi|trap_id
107	 1	 20.387072081834837	 11.326151156574909	 0.0	 2.8	 0.005147941820269123	 0.0	 0	 0	 0	 0.4	 107 #atom id|type|x0|y0|z0|d|rho|m|mx|my|mz|chi|trap_id
108	 1	 24.917532544464805	 11.326151156574909	 0.0	 2.8	 0.005147941820269123	 0.0	 0	 0	 0	 0.4	 108 #atom id|type|x0|y0|z0|d|rho|m|mx|my|mz|chi|trap_id
109	 1	 -24.917532544464805	 15.85661161920487	 0.0	 2.8	 0.005147941820269123	 0.0	 0	 0	 0	 0.4	 109 #atom id|type|x0|y0|z0|d|rho|m|mx|my|mz|chi|trap_id
110	 1	 -20.38707208183484	 15.85661161920487	 0.0	 2.8	 0.005147941820269123	 0.0	 0	 0	 0	 0.4	 110 #atom id|type|x0|y0|z0|d|rho|m|mx|my|mz|chi|trap_id
111	 1	 -15.856611619204877	 15.85661161920487	 0.0	 2.8	 0.005147941820269123	 0.0	 0	 0	 0	 0.4	 111 #atom id|type|x0|y0|z0|d|rho|m|mx|my|mz|chi|trap_id
112	 1	 -11.326151156574912	 15.85661161920487	 0.0	 2.8	 0.005147941820269123	 0.0	 0	 0	 0	 0.4	 112 #atom id|type|x0|y0|z0|d|rho|m|mx|my|mz|chi|trap_id
113	 1	 -6.795690693944948	 15.85661161920487	 0.0	 2.8	 0.005147941820269123	 0.0	 0	 0	 0	 0.4	 113 #atom id|type|x0|y0|z0|d|rho|m|mx|my|mz|chi|trap_id
114	 1	 -2.265230231314984	 15.85661161920487	 0.0	 2.8	 0.005147941820269123	 0.0	 0	 0	 0	 0.4	 114 #atom id|type|x0|y0|z0|d|rho|m|mx|my|mz|chi|trap_id
115	 1	 2.2652302313149804	 15.85661161920487	 0.0	 2.8	 0.005147941820269123	 0.0	 0	 0	 0	 0.4	 115 #atom id|type|x0|y0|z0|d|rho|m|mx|my|mz|chi|trap_id
116	 1	 6.795690693944945	 15.85661161920487	 0.0	 2.8	 0.005147941820269123	 0.0	 0	 0	 0	 0.4	 116 #atom id|type|x0|y0|z0|d|rho|m|mx|my|mz|chi|trap_id
117	 1	 11.326151156574909	 15.85661161920487	 0.0	 2.8	 0.005147941820269123	 0.0	 0	 0	 0	 0.4	 117 #atom id|type|x0|y0|z0|d|rho|m|mx|my|mz|chi|trap_id
118	 1	 15.85661161920487	 15.85661161920487	 0.0	 2.8	 0.005147941820269123	 0.0	 0	 0	 0	 0.4	 118 #atom id|type|x0|y0|z0|d|rho|m|mx|my|mz|chi|trap_id
119	 1	 20.387072081834837	 15.85661161920487	 0.0	 2.8	 0.005147941820269123	 0.0	 0	 0	 0	 0.4	 119 #atom id|type|x0|y0|z0|d|rho|m|mx|my|mz|chi|trap_id
120	 1	 24.917532544464805	 15.85661161920487	 0.0	 2.8	 0.005147941820269123	 0.0	 0	 0	 0	 0.4	 120 #atom id|type|x0|y0|z0|d|rho|m|mx|my|mz|chi|trap_id
121	 1	 -24.917532544464805	 20.387072081834837	 0.0	 2.8	 0.005147941820269123	 0.0	 0	 0	 0	 0.4	 121 #atom id|type|x0|y0|z0|d|rho|m|mx|my|mz|chi|trap_id
122	 1	 -20.38707208183484	 20.387072081834837	 0.0	 2.8	 0.005147941820269123	 0.0	 0	 0	 0	 0.4	 122 #atom id|type|x0|y0|z0|d|rho|m|mx|my|mz|chi|trap_id
123	 1	 -15.856611619204877	 20.387072081834837	 0.0	 2.8	 0.005147941820269123	 0.0	 0	 0	 0	 0.4	 123 #atom id|type|x0|y0|z0|d|rho|m|mx|my|mz|chi|trap_id
124	 1	 -11.326151156574912	 20.387072081834837	 0.0	 2.8	 0.005147941820269123	 0.0	 0	 0	 0	 0.4	 124 #atom id|type|x0|y0|z0|d|rho|m|mx|my|mz|chi|trap_id
125	 1	 -6.795690693944948	 20.387072081834837	 0.0	 2.8	 0.005147941820269123	 0.0	 0	 0	 0	 0.4	 125 #atom id|type|x0|y0|z0|d|rho|m|mx|my|mz|chi|trap_id
126	 1	 -2.265230231314984	 20.387072081834837	 0.0	 2.8	 0.005147941820269123	 0.0	 0	 0	 0	 0.4	 126 #atom id|type|x0|y0|z0|d|rho|m|mx|my|mz|chi|trap_id
127	 1	 2.2652302313149804	 20.387072081834837	 0.0	 2.8	 0.005147941820269123	 0.0	 0	 0	 0	 0.4	 127 #atom id|type|x0|y0|z0|d|rho|m|mx|my|mz|chi|trap_id
128	 1	 6.795690693944945	 20.387072081834837	 0.0	 2.8	 0.005147941820269123	 0.0	 0	 0	 0	 0.4	 128 #atom id|type|x0|y0|z0|d|rho|m|mx|my|mz|chi|trap_id
129	 1	 11.326151156574909	 20.387072081834837	 0.0	 2.8	 0.005147941820269123	 0.0	 0	 0	 0	 0.4	 129 #atom id|type|x0|y0|z0|d|rho|m|mx|my|mz|chi|trap_id
130	 1	 15.85661161920487	 20.387072081834837	 0.0	 2.8	 0.005147941820269123	 0.0	 0	 0	 0	 0.4	 130 #atom id|type|x0|y0|z0|d|rho|m|mx|my|mz|chi|trap_id
131	 1	 20.387072081834837	 20.387072081834837	 0.0	 2.8	 0.005147941820269123	 0.0	 0	 0	 0	 0.4	 131 #atom id|type|x0|y0|z0|d|rho|m|mx|my|mz|chi|trap_id
132	 1	 24.917532544464805	 20.387072081834837	 0.0	 2.8	 0.005147941820269123	 0.0	 0	 0	 0	 0.4	 132 #atom id|type|x0|y0|z0|d|rho|m|mx|my|mz|chi|trap_id
133	 1	 -24.917532544464805	 24.917532544464805	 0.0	 2.8	 0.005147941820269123	 0.0	 0	 0	 0	 0.4	 133 #atom id|type|x0|y0|z0|d|rho|m|mx|my|mz|chi|trap_id
134	 1	 -20.38707208183484	 24.917532544464805	 0.0	 2.8	 0.005147941820269123	 0.0	 0	 0	 0	 0.4	 134 #atom id|type|x0|y0|z0|d|rho|m|mx|my|mz|chi|trap_id
135	 1	 -15.856611619204877	 24.917532544464805	 0.0	 2.8	 0.005147941820269123	 0.0	 0	 0	 0	 0.4	 135 #atom id|type|x0|y0|z0|d|rho|m|mx|my|mz|chi|trap_id
136	 1	 -11.326151156574912	 24.917532544464805	 0.0	 2.8	 0.005147941820269123	 0.0	 0	 0	 0	 0.4	 136 #atom id|type|x0|y0|z0|d|rho|m|mx|my|mz|chi|trap_id
137	 1	 -6.795690693944948	 24.917532544464805	 0.0	 2.8	 0.005147941820269123	 0.0	 0	 0	 0	 0.4	 137 #atom id|type|x0|y0|z0|d|rho|m|mx|my|mz|chi|trap_id
138	 1	 -2.265230231314984	 24.917532544464805	 0.0	 2.8	 0.005147941820269123	 0.0	 0	 0	 0	 0.4	 138 #atom id|type|x0|y0|z0|d|rho|m|mx|my|mz|chi|trap_id
139	 1	 2.2652302313149804	 24.917532544464805	 0.0	 2.8	 0.005147941820269123	 0.0	 0	 0	 0	 0.4	 139 #atom id|type|x0|y0|z0|d|rho|m|mx|my|mz|chi|trap_id
140	 1	 6.795690693944945	 24.917532544464805	 0.0	 2.8	 0.005147941820269123	 0.0	 0	 0	 0	 0.4	 140 #atom id|type|x0|y0|z0|d|rho|m|mx|my|mz|chi|trap_id
141	 1	 11.326151156574909	 24.917532544464805	 0.0	 2.8	 0.005147941820269123	 0.0	 0	 0	 0	 0.4	 141 #atom id|type|x0|y0|z0|d|rho|m|mx|my|mz|chi|trap_id
142	 1	 15.85661161920487	 24.917532544464805	 0.0	 2.8	 0.005147941820269123	 0.0	 0	 0	 0	 0.4	 142 #atom id|type|x0|y0|z0|d|rho|m|mx|my|mz|chi|trap_id
143	 1	 20.387072081834837	 24.917532544464805	 0.0	 2.8	 0.005147941820269123	 0.0	 0	 0	 0	 0.4	 143 #atom id|type|x0|y0|z0|d|rho|m|mx|my|mz|chi|trap_id
144	 1	 24.917532544464805	 24.917532544464805	 0.0	 2.8	 0.005147941820269123	 0.0	 0	 0	 0	 0.4	 144 #atom id|type|x0|y0|z0|d|rho|m|mx|my|mz|chi|trap_id

PairIJ Coeffs

1 1 lj/cut/dipole/cut 0.01 2.49451641079295 2.8 20

